
     Program BANDS v.7.4.1 starts on 24Mar2025 at  8:33:46 

     This program is part of the open-source Quantum ESPRESSO suite
     for quantum simulation of materials; please cite
         "P. Giannozzi et al., J. Phys.:Condens. Matter 21 395502 (2009);
         "P. Giannozzi et al., J. Phys.:Condens. Matter 29 465901 (2017);
         "P. Giannozzi et al., J. Chem. Phys. 152 154105 (2020);
          URL http://www.quantum-espresso.org", 
     in publications or presentations arising from this work. More details at
     http://www.quantum-espresso.org/quote

     Parallel version (MPI), running on     7 processors

     MPI processes distributed on     1 nodes
     R & G space division:  proc/nbgrp/npool/nimage =       7
     9415 MiB available memory on the printing compute node when the environment starts


     Reading xml data from directory:

     ../../../tmp/gr-1L.save/

     IMPORTANT: XC functional enforced from input :
     Exchange-correlation= PBE
                           (   1   4   3   4   0   0   0)
     Any further DFT definition will be discarded
     Please, verify this is what you really want


     Parallelization info
     --------------------
     sticks:   dense  smooth     PW     G-vecs:    dense   smooth      PW
     Min          51      51     15                 4783     4783     815
     Max          52      52     16                 4800     4800     838
     Sum         361     361    109                33523    33523    5791

     Using Slab Decomposition


     Check: negative core charge=   -0.000003

     negative rho (up, down):  1.269E-04 0.000E+00
     Reading collected, re-writing distributed wavefunctions
     high-symmetry point:  0.0000 0.0000 0.0000   x coordinate   0.0000
     high-symmetry point:  0.6667 0.0000 0.0000   x coordinate   0.6667
     high-symmetry point:  0.5000 0.2887 0.0000   x coordinate   1.0000
     high-symmetry point:  0.0000 0.0000 0.0000   x coordinate   1.5774

     Plottable bands (eV) written to file gr-1L.bands.gnu
     Bands written to file gr-1L.bands

 **************************************************************************

                    xk=(   0.00000,   0.00000,   0.00000  )

     point group D_6h(6/mmm)
     there are 12 classes
     the character table:

       E     2C6   2C3   C2    3C2'  3C2'' i     2S3   2S6   s_h   3s_d  3s_v 
A_1g   1.00  1.00  1.00  1.00  1.00  1.00  1.00  1.00  1.00  1.00  1.00  1.00
A_2g   1.00  1.00  1.00  1.00 -1.00 -1.00  1.00  1.00  1.00  1.00 -1.00 -1.00
B_1g   1.00 -1.00  1.00 -1.00  1.00 -1.00  1.00 -1.00  1.00 -1.00  1.00 -1.00
B_2g   1.00 -1.00  1.00 -1.00 -1.00  1.00  1.00 -1.00  1.00 -1.00 -1.00  1.00
E_1g   2.00  1.00 -1.00 -2.00  0.00  0.00  2.00  1.00 -1.00 -2.00  0.00  0.00
E_2g   2.00 -1.00 -1.00  2.00  0.00  0.00  2.00 -1.00 -1.00  2.00  0.00  0.00
A_1u   1.00  1.00  1.00  1.00  1.00  1.00 -1.00 -1.00 -1.00 -1.00 -1.00 -1.00
A_2u   1.00  1.00  1.00  1.00 -1.00 -1.00 -1.00 -1.00 -1.00 -1.00  1.00  1.00
B_1u   1.00 -1.00  1.00 -1.00  1.00 -1.00 -1.00  1.00 -1.00  1.00 -1.00  1.00
B_2u   1.00 -1.00  1.00 -1.00 -1.00  1.00 -1.00  1.00 -1.00  1.00  1.00 -1.00
E_1u   2.00  1.00 -1.00 -2.00  0.00  0.00 -2.00 -1.00  1.00  2.00  0.00  0.00
E_2u   2.00 -1.00 -1.00  2.00  0.00  0.00 -2.00  1.00  1.00 -2.00  0.00  0.00

     the symmetry operations in each class and the name of the first element:

     E        1
                                                                 
     2C6      5    6
                                                                 
     2C3      7    8
                                                                 
     C2       2
                                                                 
     3C2'     4   12   11
                                                                 
     3C2''    3    9   10
                                                                 
     i       13
                                                                 
     2S3     17   18
                                                                 
     2S6     19   20
                                                                 
     s_h     14
                                                                 
     3s_d    16   24   23
                                                                 
     3s_v    15   21   22
                                                                 

     Band symmetry, D_6h(6/mmm) point group:

     e(  1 -  1) =    -21.23864  eV     1   --> A_1g           
     e(  2 -  2) =     -9.34331  eV     1   --> A_2u           
     e(  3 -  4) =     -4.77825  eV     2   --> E_2g           
     e(  5 -  5) =      1.41333  eV     1   --> A_1g           
     e(  6 -  6) =      2.23381  eV     1   --> A_2u           
     e(  7 -  7) =      2.48997  eV     1   --> A_1g           
     e(  8 -  8) =      4.46477  eV     1   --> A_2u           

 **************************************************************************

 **************************************************************************

                    xk=(   0.01667,   0.00000,   0.00000  )

     point group C_2v (mm2) 
     there are  4 classes
     the character table:

       E     C2    s_v   s_v' 
A_1    1.00  1.00  1.00  1.00
A_2    1.00  1.00 -1.00 -1.00
B_1    1.00 -1.00  1.00 -1.00
B_2    1.00 -1.00 -1.00  1.00

     the symmetry operations in each class and the name of the first element:

     E        1
                                                                 
     C2       2
                                                                 
     s_v      4
                                                                 
     s_v'     3
                                                                 

     Band symmetry, C_2v (mm2)  point group:

     e(  1 -  1) =    -21.23372  eV     1   --> A_1  D_1  S_1  
     e(  2 -  2) =     -9.33741  eV     1   --> B_1  D_3  S_3  
     e(  3 -  3) =     -4.79870  eV     1   --> B_2  D_4  S_4  
     e(  4 -  4) =     -4.78914  eV     1   --> A_1  D_1  S_1  
     e(  5 -  5) =      1.42006  eV     1   --> A_1  D_1  S_1  
     e(  6 -  6) =      2.24059  eV     1   --> B_1  D_3  S_3  
     e(  7 -  7) =      2.49676  eV     1   --> A_1  D_1  S_1  
     e(  8 -  8) =      4.47144  eV     1   --> B_1  D_3  S_3  

 **************************************************************************

 **************************************************************************

                    xk=(   0.03333,   0.00000,   0.00000  )

     Band symmetry, C_2v (mm2)  point group:

     e(  1 -  1) =    -21.21895  eV     1   --> A_1  D_1  S_1  
     e(  2 -  2) =     -9.31971  eV     1   --> B_1  D_3  S_3  
     e(  3 -  3) =     -4.85952  eV     1   --> B_2  D_4  S_4  
     e(  4 -  4) =     -4.82175  eV     1   --> A_1  D_1  S_1  
     e(  5 -  5) =      1.44026  eV     1   --> A_1  D_1  S_1  
     e(  6 -  6) =      2.26093  eV     1   --> B_1  D_3  S_3  
     e(  7 -  7) =      2.51714  eV     1   --> A_1  D_1  S_1  
     e(  8 -  8) =      4.49155  eV     1   --> B_1  D_3  S_3  

 **************************************************************************

 **************************************************************************

                    xk=(   0.05000,   0.00000,   0.00000  )

     Band symmetry, C_2v (mm2)  point group:

     e(  1 -  1) =    -21.19435  eV     1   --> A_1  D_1  S_1  
     e(  2 -  2) =     -9.29025  eV     1   --> B_1  D_3  S_3  
     e(  3 -  3) =     -4.95897  eV     1   --> B_2  D_4  S_4  
     e(  4 -  4) =     -4.87578  eV     1   --> A_1  D_1  S_1  
     e(  5 -  5) =      1.47391  eV     1   --> A_1  D_1  S_1  
     e(  6 -  6) =      2.29483  eV     1   --> B_1  D_3  S_3  
     e(  7 -  7) =      2.55112  eV     1   --> A_1  D_1  S_1  
     e(  8 -  8) =      4.52507  eV     1   --> B_1  D_3  S_3  

 **************************************************************************

 **************************************************************************

                    xk=(   0.06667,   0.00000,   0.00000  )

     Band symmetry, C_2v (mm2)  point group:

     e(  1 -  1) =    -21.15993  eV     1   --> A_1  D_1  S_1  
     e(  2 -  2) =     -9.24901  eV     1   --> B_1  D_3  S_3  
     e(  3 -  3) =     -5.09431  eV     1   --> B_2  D_4  S_4  
     e(  4 -  4) =     -4.95074  eV     1   --> A_1  D_1  S_1  
     e(  5 -  5) =      1.52104  eV     1   --> A_1  D_1  S_1  
     e(  6 -  6) =      2.34229  eV     1   --> B_1  D_3  S_3  
     e(  7 -  7) =      2.59868  eV     1   --> A_1  D_1  S_1  
     e(  8 -  8) =      4.57198  eV     1   --> B_1  D_3  S_3  

 **************************************************************************

 **************************************************************************

                    xk=(   0.08333,   0.00000,   0.00000  )

     Band symmetry, C_2v (mm2)  point group:

     e(  1 -  1) =    -21.11568  eV     1   --> A_1  D_1  S_1  
     e(  2 -  2) =     -9.19604  eV     1   --> B_1  D_3  S_3  
     e(  3 -  3) =     -5.26221  eV     1   --> B_2  D_4  S_4  
     e(  4 -  4) =     -5.04601  eV     1   --> A_1  D_1  S_1  
     e(  5 -  5) =      1.58163  eV     1   --> A_1  D_1  S_1  
     e(  6 -  6) =      2.40330  eV     1   --> B_1  D_3  S_3  
     e(  7 -  7) =      2.65985  eV     1   --> A_1  D_1  S_1  
     e(  8 -  8) =      4.63227  eV     1   --> B_1  D_3  S_3  

 **************************************************************************

 **************************************************************************

                    xk=(   0.10000,   0.00000,   0.00000  )

     Band symmetry, C_2v (mm2)  point group:

     e(  1 -  1) =    -21.06163  eV     1   --> A_1  D_1  S_1  
     e(  2 -  2) =     -9.13139  eV     1   --> B_1  D_3  S_3  
     e(  3 -  3) =     -5.45895  eV     1   --> B_2  D_4  S_4  
     e(  4 -  4) =     -5.16077  eV     1   --> A_1  D_1  S_1  
     e(  5 -  5) =      1.65569  eV     1   --> A_1  D_1  S_1  
     e(  6 -  6) =      2.47785  eV     1   --> B_1  D_3  S_3  
     e(  7 -  7) =      2.73461  eV     1   --> A_1  D_1  S_1  
     e(  8 -  8) =      4.70632  eV     1   --> B_1  D_3  S_3  

 **************************************************************************

 **************************************************************************

                    xk=(   0.11667,   0.00000,   0.00000  )

     Band symmetry, C_2v (mm2)  point group:

     e(  1 -  1) =    -20.99778  eV     1   --> A_1  D_1  S_1  
     e(  2 -  2) =     -9.05511  eV     1   --> B_1  D_3  S_3  
     e(  3 -  3) =     -5.68068  eV     1   --> B_2  D_4  S_4  
     e(  4 -  4) =     -5.29407  eV     1   --> A_1  D_1  S_1  
     e(  5 -  5) =      1.74322  eV     1   --> A_1  D_1  S_1  
     e(  6 -  6) =      2.56593  eV     1   --> B_1  D_3  S_3  
     e(  7 -  7) =      2.82298  eV     1   --> A_1  D_1  S_1  
     e(  8 -  8) =      4.79293  eV     1   --> B_1  D_3  S_3  

 **************************************************************************

 **************************************************************************

                    xk=(   0.13333,   0.00000,   0.00000  )

     Band symmetry, C_2v (mm2)  point group:

     e(  1 -  1) =    -20.92417  eV     1   --> A_1  D_1  S_1  
     e(  2 -  2) =     -8.96724  eV     1   --> B_1  D_3  S_3  
     e(  3 -  3) =     -5.92354  eV     1   --> B_2  D_4  S_4  
     e(  4 -  4) =     -5.44487  eV     1   --> A_1  D_1  S_1  
     e(  5 -  5) =      1.84422  eV     1   --> A_1  D_1  S_1  
     e(  6 -  6) =      2.66752  eV     1   --> B_1  D_3  S_3  
     e(  7 -  7) =      2.92495  eV     1   --> A_1  D_1  S_1  
     e(  8 -  8) =      4.89326  eV     1   --> B_1  D_3  S_3  

 **************************************************************************

 **************************************************************************

                    xk=(   0.15000,   0.00000,   0.00000  )

     Band symmetry, C_2v (mm2)  point group:

     e(  1 -  1) =    -20.84083  eV     1   --> A_1  D_1  S_1  
     e(  2 -  2) =     -8.86787  eV     1   --> B_1  D_3  S_3  
     e(  3 -  3) =     -6.18403  eV     1   --> B_2  D_4  S_4  
     e(  4 -  4) =     -5.61198  eV     1   --> A_1  D_1  S_1  
     e(  5 -  5) =      1.95869  eV     1   --> A_1  D_1  S_1  
     e(  6 -  6) =      2.78262  eV     1   --> B_1  D_3  S_3  
     e(  7 -  7) =      3.04053  eV     1   --> A_1  D_1  S_1  
     e(  8 -  8) =      5.00691  eV     1   --> B_1  D_3  S_3  

 **************************************************************************

 **************************************************************************

                    xk=(   0.16667,   0.00000,   0.00000  )

     Band symmetry, C_2v (mm2)  point group:

     e(  1 -  1) =    -20.74776  eV     1   --> A_1  D_1  S_1  
     e(  2 -  2) =     -8.75707  eV     1   --> B_1  D_3  S_3  
     e(  3 -  3) =     -6.45878  eV     1   --> B_2  D_4  S_4  
     e(  4 -  4) =     -5.79413  eV     1   --> A_1  D_1  S_1  
     e(  5 -  5) =      2.08662  eV     1   --> A_1  D_1  S_1  
     e(  6 -  6) =      2.91119  eV     1   --> B_1  D_3  S_3  
     e(  7 -  7) =      3.16972  eV     1   --> A_1  D_1  S_1  
     e(  8 -  8) =      5.13375  eV     1   --> B_1  D_3  S_3  

 **************************************************************************

 **************************************************************************

                    xk=(   0.18333,   0.00000,   0.00000  )

     Band symmetry, C_2v (mm2)  point group:

     e(  1 -  1) =    -20.64502  eV     1   --> A_1  D_1  S_1  
     e(  2 -  2) =     -8.63495  eV     1   --> B_1  D_3  S_3  
     e(  3 -  3) =     -6.74492  eV     1   --> B_2  D_4  S_4  
     e(  4 -  4) =     -5.99004  eV     1   --> A_1  D_1  S_1  
     e(  5 -  5) =      2.22801  eV     1   --> A_1  D_1  S_1  
     e(  6 -  6) =      3.05323  eV     1   --> B_1  D_3  S_3  
     e(  7 -  7) =      3.31252  eV     1   --> A_1  D_1  S_1  
     e(  8 -  8) =      5.27383  eV     1   --> B_1  D_3  S_3  

 **************************************************************************

 **************************************************************************

                    xk=(   0.20000,   0.00000,   0.00000  )

     Band symmetry, C_2v (mm2)  point group:

     e(  1 -  1) =    -20.53265  eV     1   --> A_1  D_1  S_1  
     e(  2 -  2) =     -8.50162  eV     1   --> B_1  D_3  S_3  
     e(  3 -  3) =     -7.03979  eV     1   --> B_2  D_4  S_4  
     e(  4 -  4) =     -6.19839  eV     1   --> A_1  D_1  S_1  
     e(  5 -  5) =      2.38285  eV     1   --> A_1  D_1  S_1  
     e(  6 -  6) =      3.20869  eV     1   --> B_1  D_3  S_3  
     e(  7 -  7) =      3.46893  eV     1   --> A_1  D_1  S_1  
     e(  8 -  8) =      5.42708  eV     1   --> B_1  D_3  S_3  

 **************************************************************************

 **************************************************************************

                    xk=(   0.21667,   0.00000,   0.00000  )

     Band symmetry, C_2v (mm2)  point group:

     e(  1 -  1) =    -20.41066  eV     1   --> A_1  D_1  S_1  
     e(  2 -  2) =     -8.35719  eV     1   --> B_1  D_3  S_3  
     e(  3 -  3) =     -7.34112  eV     1   --> B_2  D_4  S_4  
     e(  4 -  4) =     -6.41778  eV     1   --> A_1  D_1  S_1  
     e(  5 -  5) =      2.55112  eV     1   --> A_1  D_1  S_1  
     e(  6 -  6) =      3.37755  eV     1   --> B_1  D_3  S_3  
     e(  7 -  7) =      3.63894  eV     1   --> A_1  D_1  S_1  
     e(  8 -  8) =      5.59341  eV     1   --> B_1  D_3  S_3  

 **************************************************************************

 **************************************************************************

                    xk=(   0.23333,   0.00000,   0.00000  )

     Band symmetry, C_2v (mm2)  point group:

     e(  1 -  1) =    -20.27913  eV     1   --> A_1  D_1  S_1  
     e(  2 -  2) =     -8.20182  eV     1   --> B_1  D_3  S_3  
     e(  3 -  3) =     -7.64691  eV     1   --> B_2  D_4  S_4  
     e(  4 -  4) =     -6.64688  eV     1   --> A_1  D_1  S_1  
     e(  5 -  5) =      2.73281  eV     1   --> A_1  D_1  S_1  
     e(  6 -  6) =      3.55976  eV     1   --> B_1  D_3  S_3  
     e(  7 -  7) =      3.82256  eV     1   --> A_1  D_1  S_1  
     e(  8 -  8) =      5.77318  eV     1   -->   ?

 **************************************************************************

 **************************************************************************

                    xk=(   0.25000,   0.00000,   0.00000  )

     Band symmetry, C_2v (mm2)  point group:

     e(  1 -  1) =    -20.13811  eV     1   --> A_1  D_1  S_1  
     e(  2 -  2) =     -8.03567  eV     1   --> B_1  D_3  S_3  
     e(  3 -  3) =     -7.95544  eV     1   --> B_2  D_4  S_4  
     e(  4 -  4) =     -6.88437  eV     1   --> A_1  D_1  S_1  
     e(  5 -  5) =      2.92790  eV     1   --> A_1  D_1  S_1  
     e(  6 -  6) =      3.75527  eV     1   --> B_1  D_3  S_3  
     e(  7 -  7) =      4.01978  eV     1   --> A_1  D_1  S_1  
     e(  8 -  8) =      5.96489  eV     1   -->   ?

 **************************************************************************

 **************************************************************************

                    xk=(   0.26667,   0.00000,   0.00000  )

     Band symmetry, C_2v (mm2)  point group:

     e(  1 -  1) =    -19.98766  eV     1   --> A_1  D_1  S_1  
     e(  2 -  2) =     -8.26525  eV     1   --> B_2  D_4  S_4  
     e(  3 -  3) =     -7.85892  eV     1   --> B_1  D_3  S_3  
     e(  4 -  4) =     -7.12897  eV     1   --> A_1  D_1  S_1  
     e(  5 -  5) =      3.13637  eV     1   --> A_1  D_1  S_1  
     e(  6 -  6) =      3.96403  eV     1   --> B_1  D_3  S_3  
     e(  7 -  7) =      4.23059  eV     1   --> A_1  D_1  S_1  
     e(  8 -  8) =      6.15724  eV     1   -->   ?

 **************************************************************************

 **************************************************************************

                    xk=(   0.28333,   0.00000,   0.00000  )

     Band symmetry, C_2v (mm2)  point group:

     e(  1 -  1) =    -19.82784  eV     1   --> A_1  D_1  S_1  
     e(  2 -  2) =     -8.57501  eV     1   --> B_2  D_4  S_4  
     e(  3 -  3) =     -7.67177  eV     1   --> B_1  D_3  S_3  
     e(  4 -  4) =     -7.37940  eV     1   --> A_1  D_1  S_1  
     e(  5 -  5) =      3.35819  eV     1   --> A_1  D_1  S_1  
     e(  6 -  6) =      4.18594  eV     1   --> B_1  D_3  S_3  
     e(  7 -  7) =      4.45498  eV     1   --> A_1  D_1  S_1  
     e(  8 -  8) =      5.79250  eV     1   --> A_2  D_2  S_2  

 **************************************************************************

 **************************************************************************

                    xk=(   0.30000,   0.00000,   0.00000  )

     Band symmetry, C_2v (mm2)  point group:

     e(  1 -  1) =    -19.65874  eV     1   --> A_1  D_1  S_1  
     e(  2 -  2) =     -8.88365  eV     1   --> B_2  D_4  S_4  
     e(  3 -  3) =     -7.63449  eV     1   --> A_1  D_1  S_1  
     e(  4 -  4) =     -7.47446  eV     1   --> B_1  D_3  S_3  
     e(  5 -  5) =      3.59332  eV     1   --> A_1  D_1  S_1  
     e(  6 -  6) =      4.42093  eV     1   --> B_1  D_3  S_3  
     e(  7 -  7) =      4.69294  eV     1   --> A_1  D_1  S_1  
     e(  8 -  8) =      5.42350  eV     1   --> A_2  D_2  S_2  

 **************************************************************************

 **************************************************************************

                    xk=(   0.31667,   0.00000,   0.00000  )

     Band symmetry, C_2v (mm2)  point group:

     e(  1 -  1) =    -19.48045  eV     1   --> A_1  D_1  S_1  
     e(  2 -  2) =     -9.19021  eV     1   --> B_2  D_4  S_4  
     e(  3 -  3) =     -7.89309  eV     1   --> A_1  D_1  S_1  
     e(  4 -  4) =     -7.26725  eV     1   --> B_1  D_3  S_3  
     e(  5 -  5) =      3.84173  eV     1   --> A_1  D_1  S_1  
     e(  6 -  6) =      4.66885  eV     1   --> B_1  D_3  S_3  
     e(  7 -  7) =      4.94447  eV     1   --> A_1  D_1  S_1  
     e(  8 -  8) =      5.05179  eV     1   --> A_2  D_2  S_2  

 **************************************************************************

 **************************************************************************

                    xk=(   0.33333,   0.00000,   0.00000  )

     Band symmetry, C_2v (mm2)  point group:

     e(  1 -  1) =    -19.29307  eV     1   --> A_1  D_1  S_1  
     e(  2 -  2) =     -9.49389  eV     1   --> B_2  D_4  S_4  
     e(  3 -  3) =     -8.15411  eV     1   --> A_1  D_1  S_1  
     e(  4 -  4) =     -7.05041  eV     1   --> B_1  D_3  S_3  
     e(  5 -  5) =      4.10337  eV     1   --> A_1  D_1  S_1  
     e(  6 -  6) =      4.67879  eV     1   --> A_2  D_2  S_2  
     e(  7 -  7) =      4.92957  eV     1   --> B_1  D_3  S_3  
     e(  8 -  8) =      5.20953  eV     1   --> A_1  D_1  S_1  

 **************************************************************************

 **************************************************************************

                    xk=(   0.35000,   0.00000,   0.00000  )

     Band symmetry, C_2v (mm2)  point group:

     e(  1 -  1) =    -19.09672  eV     1   --> A_1  D_1  S_1  
     e(  2 -  2) =     -9.79396  eV     1   --> B_2  D_4  S_4  
     e(  3 -  3) =     -8.41652  eV     1   --> A_1  D_1  S_1  
     e(  4 -  4) =     -6.82431  eV     1   --> B_1  D_3  S_3  
     e(  5 -  5) =      4.30581  eV     1   --> A_2  D_2  S_2  
     e(  6 -  6) =      4.37818  eV     1   --> A_1  D_1  S_1  
     e(  7 -  7) =      5.20288  eV     1   --> B_1  D_3  S_3  
     e(  8 -  8) =      5.48811  eV     1   --> A_1  D_1  S_1  

 **************************************************************************

 **************************************************************************

                    xk=(   0.36667,   0.00000,   0.00000  )

     Band symmetry, C_2v (mm2)  point group:

     e(  1 -  1) =    -18.89152  eV     1   --> A_1  D_1  S_1  
     e(  2 -  2) =    -10.08979  eV     1   --> B_2  D_4  S_4  
     e(  3 -  3) =     -8.67933  eV     1   --> A_1  D_1  S_1  
     e(  4 -  4) =     -6.58932  eV     1   --> B_1  D_3  S_3  
     e(  5 -  5) =      3.93406  eV     1   --> A_2  D_2  S_2  
     e(  6 -  6) =      4.66610  eV     1   --> A_1  D_1  S_1  
     e(  7 -  7) =      5.48850  eV     1   --> B_1  D_3  S_3  
     e(  8 -  8) =      5.78020  eV     1   --> A_1  D_1  S_1  

 **************************************************************************

 **************************************************************************

                    xk=(   0.38333,   0.00000,   0.00000  )

     Band symmetry, C_2v (mm2)  point group:

     e(  1 -  1) =    -18.67764  eV     1   --> A_1  D_1  S_1  
     e(  2 -  2) =    -10.38090  eV     1   --> B_2  D_4  S_4  
     e(  3 -  3) =     -8.94166  eV     1   --> A_1  D_1  S_1  
     e(  4 -  4) =     -6.34583  eV     1   --> B_1  D_3  S_3  
     e(  5 -  5) =      3.56456  eV     1   --> A_2  D_2  S_2  
     e(  6 -  6) =      4.96704  eV     1   --> A_1  D_1  S_1  
     e(  7 -  7) =      5.78608  eV     1   --> B_1  D_3  S_3  
     e(  8 -  8) =      6.08576  eV     1   --> A_1  D_1  S_1  

 **************************************************************************

 **************************************************************************

                    xk=(   0.40000,   0.00000,   0.00000  )

     Band symmetry, C_2v (mm2)  point group:

     e(  1 -  1) =    -18.45525  eV     1   --> A_1  D_1  S_1  
     e(  2 -  2) =    -10.66679  eV     1   --> B_2  D_4  S_4  
     e(  3 -  3) =     -9.20261  eV     1   --> A_1  D_1  S_1  
     e(  4 -  4) =     -6.09433  eV     1   --> B_1  D_3  S_3  
     e(  5 -  5) =      3.19839  eV     1   --> A_2  D_2  S_2  
     e(  6 -  6) =      5.28090  eV     1   --> A_1  D_1  S_1  
     e(  7 -  7) =      6.09510  eV     1   --> B_1  D_3  S_3  
     e(  8 -  8) =      6.40475  eV     1   --> A_1  D_1  S_1  

 **************************************************************************

 **************************************************************************

                    xk=(   0.41667,   0.00000,   0.00000  )

     Band symmetry, C_2v (mm2)  point group:

     e(  1 -  1) =    -18.22456  eV     1   --> A_1  D_1  S_1  
     e(  2 -  2) =    -10.94705  eV     1   --> B_2  D_4  S_4  
     e(  3 -  3) =     -9.46135  eV     1   --> A_1  D_1  S_1  
     e(  4 -  4) =     -5.83535  eV     1   --> B_1  D_3  S_3  
     e(  5 -  5) =      2.83626  eV     1   --> A_2  D_2  S_2  
     e(  6 -  6) =      5.60756  eV     1   --> A_1  D_1  S_1  
     e(  7 -  7) =      6.41483  eV     1   --> B_1  D_3  S_3  
     e(  8 -  8) =      6.73713  eV     1   --> A_1  D_1  S_1  

 **************************************************************************

 **************************************************************************

                    xk=(   0.43333,   0.00000,   0.00000  )

     Band symmetry, C_2v (mm2)  point group:

     e(  1 -  1) =    -17.98578  eV     1   --> A_1  D_1  S_1  
     e(  2 -  2) =    -11.22131  eV     1   --> B_2  D_4  S_4  
     e(  3 -  3) =     -9.71707  eV     1   --> A_1  D_1  S_1  
     e(  4 -  4) =     -5.56950  eV     1   --> B_1  D_3  S_3  
     e(  5 -  5) =      2.47905  eV     1   --> A_2  D_2  S_2  
     e(  6 -  6) =      5.94686  eV     1   --> A_1  D_1  S_1  
     e(  7 -  7) =      6.74422  eV     1   --> B_1  D_3  S_3  
     e(  8 -  8) =      7.08284  eV     1   --> A_1  D_1  S_1  

 **************************************************************************

 **************************************************************************

                    xk=(   0.45000,   0.00000,   0.00000  )

     Band symmetry, C_2v (mm2)  point group:

     e(  1 -  1) =    -17.73925  eV     1   --> A_1  D_1  S_1  
     e(  2 -  2) =    -11.48933  eV     1   --> B_2  D_4  S_4  
     e(  3 -  3) =     -9.96900  eV     1   --> A_1  D_1  S_1  
     e(  4 -  4) =     -5.29746  eV     1   --> B_1  D_3  S_3  
     e(  5 -  5) =      2.12748  eV     1   --> A_2  D_2  S_2  
     e(  6 -  6) =      6.29859  eV     1   --> A_1  D_1  S_1  
     e(  7 -  7) =      7.08161  eV     1   --> B_1  D_3  S_3  
     e(  8 -  8) =      7.44182  eV     1   --> A_1  D_1  S_1  

 **************************************************************************

 **************************************************************************

                    xk=(   0.46667,   0.00000,   0.00000  )

     Band symmetry, C_2v (mm2)  point group:

     e(  1 -  1) =    -17.48527  eV     1   --> A_1  D_1  S_1  
     e(  2 -  2) =    -11.75080  eV     1   --> B_2  D_4  S_4  
     e(  3 -  3) =    -10.21635  eV     1   --> A_1  D_1  S_1  
     e(  4 -  4) =     -5.02000  eV     1   --> B_1  D_3  S_3  
     e(  5 -  5) =      1.78218  eV     1   --> A_2  D_2  S_2  
     e(  6 -  6) =      6.66249  eV     1   --> A_1  D_1  S_1  
     e(  7 -  7) =      7.42436  eV     1   --> B_1  D_3  S_3  
     e(  8 -  8) =      7.81396  eV     1   --> A_1  D_1  S_1  

 **************************************************************************

 **************************************************************************

                    xk=(   0.48333,   0.00000,   0.00000  )

     Band symmetry, C_2v (mm2)  point group:

     e(  1 -  1) =    -17.22427  eV     1   --> A_1  D_1  S_1  
     e(  2 -  2) =    -12.00546  eV     1   --> B_2  D_4  S_4  
     e(  3 -  3) =    -10.45834  eV     1   --> A_1  D_1  S_1  
     e(  4 -  4) =     -4.73801  eV     1   --> B_1  D_3  S_3  
     e(  5 -  5) =      1.44372  eV     1   --> A_2  D_2  S_2  
     e(  6 -  6) =      7.03822  eV     1   --> A_1  D_1  S_1  
     e(  7 -  7) =      7.76806  eV     1   --> B_1  D_3  S_3  
     e(  8 -  8) =      8.19913  eV     1   --> A_1  D_1  S_1  

 **************************************************************************

 **************************************************************************

                    xk=(   0.50000,   0.00000,   0.00000  )

     Band symmetry, C_2v (mm2)  point group:

     e(  1 -  1) =    -16.95682  eV     1   --> A_1  D_1  S_1  
     e(  2 -  2) =    -12.25317  eV     1   --> B_2  D_4  S_4  
     e(  3 -  3) =    -10.69416  eV     1   --> A_1  D_1  S_1  
     e(  4 -  4) =     -4.45244  eV     1   --> B_1  D_3  S_3  
     e(  5 -  5) =      1.11263  eV     1   --> A_2  D_2  S_2  
     e(  6 -  6) =      7.42529  eV     1   --> A_1  D_1  S_1  
     e(  7 -  7) =      8.10499  eV     1   --> B_1  D_3  S_3  
     e(  8 -  8) =      8.59717  eV     1   --> A_1  D_1  S_1  

 **************************************************************************

 **************************************************************************

                    xk=(   0.51667,   0.00000,   0.00000  )

     Band symmetry, C_2v (mm2)  point group:

     e(  1 -  1) =    -16.68353  eV     1   --> A_1  D_1  S_1  
     e(  2 -  2) =    -12.49369  eV     1   --> B_2  D_4  S_4  
     e(  3 -  3) =    -10.92288  eV     1   --> A_1  D_1  S_1  
     e(  4 -  4) =     -4.16442  eV     1   --> B_1  D_3  S_3  
     e(  5 -  5) =      0.78939  eV     1   --> A_2  D_2  S_2  
     e(  6 -  6) =      7.82305  eV     1   --> A_1  D_1  S_1  
     e(  7 -  7) =      8.42142  eV     1   --> B_1  D_3  S_3  
     e(  8 -  8) =      9.00780  eV     1   --> A_1  D_1  S_1  

 **************************************************************************

 **************************************************************************

                    xk=(   0.53333,   0.00000,   0.00000  )

     Band symmetry, C_2v (mm2)  point group:

     e(  1 -  1) =    -16.40526  eV     1   --> A_1  D_1  S_1  
     e(  2 -  2) =    -12.72691  eV     1   --> B_2  D_4  S_4  
     e(  3 -  3) =    -11.14347  eV     1   --> A_1  D_1  S_1  
     e(  4 -  4) =     -3.87513  eV     1   --> B_1  D_3  S_3  
     e(  5 -  5) =      0.47441  eV     1   --> A_2  D_2  S_2  
     e(  6 -  6) =      8.23056  eV     1   --> A_1  D_1  S_1  
     e(  7 -  7) =      8.69434  eV     1   --> B_1  D_3  S_3  
     e(  8 -  8) =      9.43064  eV     1   --> A_1  D_1  S_1  

 **************************************************************************

 **************************************************************************

                    xk=(   0.55000,   0.00000,   0.00000  )

     Band symmetry, C_2v (mm2)  point group:

     e(  1 -  1) =    -16.12316  eV     1   --> A_1  D_1  S_1  
     e(  2 -  2) =    -12.95266  eV     1   --> B_2  D_4  S_4  
     e(  3 -  3) =    -11.35469  eV     1   --> A_1  D_1  S_1  
     e(  4 -  4) =     -3.58598  eV     1   --> B_1  D_3  S_3  
     e(  5 -  5) =      0.16811  eV     1   --> A_2  D_2  S_2  
     e(  6 -  6) =      8.64643  eV     1   --> A_1  D_1  S_1  
     e(  7 -  7) =      8.89382  eV     1   --> B_1  D_3  S_3  
     e(  8 -  8) =      9.86506  eV     1   --> A_1  D_1  S_1  

 **************************************************************************

 **************************************************************************

                    xk=(   0.56667,   0.00000,   0.00000  )

     Band symmetry, C_2v (mm2)  point group:

     e(  1 -  1) =    -15.83874  eV     1   --> A_1  D_1  S_1  
     e(  2 -  2) =    -13.17081  eV     1   --> B_2  D_4  S_4  
     e(  3 -  3) =    -11.55492  eV     1   --> A_1  D_1  S_1  
     e(  4 -  4) =     -3.29848  eV     1   --> B_1  D_3  S_3  
     e(  5 -  5) =     -0.12918  eV     1   --> A_2  D_2  S_2  
     e(  6 -  6) =      9.00215  eV     1   --> B_1  D_3  S_3  
     e(  7 -  7) =      9.06850  eV     1   --> A_1  D_1  S_1  
     e(  8 -  8) =     10.30989  eV     1   --> A_1  D_1  S_1  

 **************************************************************************

 **************************************************************************

                    xk=(   0.58333,   0.00000,   0.00000  )

     Band symmetry, C_2v (mm2)  point group:

     e(  1 -  1) =    -15.55422  eV     1   --> A_1  D_1  S_1  
     e(  2 -  2) =    -13.38130  eV     1   --> B_2  D_4  S_4  
     e(  3 -  3) =    -11.74201  eV     1   --> A_1  D_1  S_1  
     e(  4 -  4) =     -3.01426  eV     1   --> B_1  D_3  S_3  
     e(  5 -  5) =     -0.41717  eV     1   --> A_2  D_2  S_2  
     e(  6 -  6) =      9.03255  eV     1   --> B_1  D_3  S_3  
     e(  7 -  7) =      9.49330  eV     1   --> A_1  D_1  S_1  
     e(  8 -  8) =     10.76254  eV     1   --> A_1  D_1  S_1  

 **************************************************************************

 **************************************************************************

                    xk=(   0.60000,   0.00000,   0.00000  )

     Band symmetry, C_2v (mm2)  point group:

     e(  1 -  1) =    -15.27277  eV     1   --> A_1  D_1  S_1  
     e(  2 -  2) =    -13.58400  eV     1   --> B_2  D_4  S_4  
     e(  3 -  3) =    -11.91286  eV     1   --> A_1  D_1  S_1  
     e(  4 -  4) =     -2.73512  eV     1   --> B_1  D_3  S_3  
     e(  5 -  5) =     -0.69554  eV     1   --> A_2  D_2  S_2  
     e(  6 -  6) =      9.01600  eV     1   --> B_1  D_3  S_3  
     e(  7 -  7) =      9.91494  eV     1   --> A_1  D_1  S_1  
     e(  8 -  8) =     11.24148  eV     1   -->   ?

 **************************************************************************

 **************************************************************************

                    xk=(   0.61667,   0.00000,   0.00000  )

     Band symmetry, C_2v (mm2)  point group:

     e(  1 -  1) =    -14.99915  eV     1   --> A_1  D_1  S_1  
     e(  2 -  2) =    -13.77883  eV     1   --> B_2  D_4  S_4  
     e(  3 -  3) =    -12.06286  eV     1   --> A_1  D_1  S_1  
     e(  4 -  4) =     -2.46296  eV     1   --> B_1  D_3  S_3  
     e(  5 -  5) =     -0.96407  eV     1   --> A_2  D_2  S_2  
     e(  6 -  6) =      8.97986  eV     1   --> B_1  D_3  S_3  
     e(  7 -  7) =     10.32271  eV     1   --> A_1  D_1  S_1  
     e(  8 -  8) =     11.31129  eV     1   --> B_2  D_4  S_4  

 **************************************************************************

 **************************************************************************

                    xk=(   0.63333,   0.00000,   0.00000  )

     Band symmetry, C_2v (mm2)  point group:

     e(  1 -  1) =    -14.74057  eV     1   --> A_1  D_1  S_1  
     e(  2 -  2) =    -13.96573  eV     1   --> B_2  D_4  S_4  
     e(  3 -  3) =    -12.18503  eV     1   --> A_1  D_1  S_1  
     e(  4 -  4) =     -2.19979  eV     1   --> B_1  D_3  S_3  
     e(  5 -  5) =     -1.22249  eV     1   --> A_2  D_2  S_2  
     e(  6 -  6) =      8.94238  eV     1   --> B_1  D_3  S_3  
     e(  7 -  7) =     10.69619  eV     1   --> A_1  D_1  S_1  
     e(  8 -  8) =     11.28842  eV     1   --> B_2  D_4  S_4  

 **************************************************************************

 **************************************************************************

                    xk=(   0.65000,   0.00000,   0.00000  )

     Band symmetry, C_2v (mm2)  point group:

     e(  1 -  1) =    -14.50779  eV     1   --> A_1  D_1  S_1  
     e(  2 -  2) =    -14.14460  eV     1   --> B_2  D_4  S_4  
     e(  3 -  3) =    -12.26892  eV     1   --> A_1  D_1  S_1  
     e(  4 -  4) =     -1.94753  eV     1   --> B_1  D_3  S_3  
     e(  5 -  5) =     -1.47059  eV     1   --> A_2  D_2  S_2  
     e(  6 -  6) =      8.91496  eV     1   --> B_1  D_3  S_3  
     e(  7 -  7) =     10.99609  eV     1   --> A_1  D_1  S_1  
     e(  8 -  8) =     11.23890  eV     1   --> B_2  D_4  S_4  

 **************************************************************************

 **************************************************************************

                    xk=(   0.66667,   0.00000,   0.00000  )

     point group D_3h (-62m)
     there are  6 classes
     the character table:

       E     2C3   3C2   s_h   2S3   3s_v 
A'_1   1.00  1.00  1.00  1.00  1.00  1.00
A'_2   1.00  1.00 -1.00  1.00  1.00 -1.00
E'     2.00 -1.00  0.00  2.00 -1.00  0.00
A''1   1.00  1.00  1.00 -1.00 -1.00 -1.00
A''2   1.00  1.00 -1.00 -1.00 -1.00  1.00
E''    2.00 -1.00  0.00 -2.00  1.00  0.00

     the symmetry operations in each class and the name of the first element:

     E        1
                                                                 
     2C3      3    4
                                                                 
     3C2      2    5    6
                                                                 
     s_h      7
                                                                 
     2S3      9   10
                                                                 
     3s_v     8   12   11
                                                                 

     Band symmetry, D_3h (-62m) point group:

     e(  1 -  2) =    -14.31542  eV     2   --> E'             
     e(  3 -  3) =    -12.30037  eV     1   --> A'_1           
     e(  4 -  5) =     -1.70817  eV     2   --> E''            
     e(  6 -  6) =      8.90473  eV     1   --> A''2           
     e(  7 -  8) =     11.16384  eV     2   --> E'             

 **************************************************************************

 **************************************************************************

                    xk=(   0.65833,   0.01443,   0.00000  )

     point group C_2v (mm2) 
     there are  4 classes
     the character table:

       E     C2    s_v   s_v' 
A_1    1.00  1.00  1.00  1.00
A_2    1.00  1.00 -1.00 -1.00
B_1    1.00 -1.00  1.00 -1.00
B_2    1.00 -1.00 -1.00  1.00

     the symmetry operations in each class and the name of the first element:

     E        1
                                                                 
     C2       2
                                                                 
     s_v      4
                                                                 
     s_v'     3
                                                                 

     Band symmetry, C_2v (mm2)  point group:

     e(  1 -  1) =    -14.47813  eV     1   --> B_2  D_4  S_4  
     e(  2 -  2) =    -14.17880  eV     1   --> A_1  D_1  S_1  
     e(  3 -  3) =    -12.26456  eV     1   --> A_1  D_1  S_1  
     e(  4 -  4) =     -1.93508  eV     1   --> A_2  D_2  S_2  
     e(  5 -  5) =     -1.48355  eV     1   --> B_1  D_3  S_3  
     e(  6 -  6) =      8.91608  eV     1   --> B_1  D_3  S_3  
     e(  7 -  7) =     11.06648  eV     1   --> B_2  D_4  S_4  
     e(  8 -  8) =     11.17806  eV     1   --> A_1  D_1  S_1  

 **************************************************************************

 **************************************************************************

                    xk=(   0.65000,   0.02887,   0.00000  )

     Band symmetry, C_2v (mm2)  point group:

     e(  1 -  1) =    -14.63269  eV     1   --> B_2  D_4  S_4  
     e(  2 -  2) =    -14.10604  eV     1   --> A_1  D_1  S_1  
     e(  3 -  3) =    -12.15404  eV     1   --> A_1  D_1  S_1  
     e(  4 -  4) =     -2.15116  eV     1   --> A_2  D_2  S_2  
     e(  5 -  5) =     -1.27522  eV     1   --> B_1  D_3  S_3  
     e(  6 -  6) =      8.95152  eV     1   --> B_1  D_3  S_3  
     e(  7 -  7) =     10.95149  eV     1   --> B_2  D_4  S_4  
     e(  8 -  8) =     11.08798  eV     1   --> A_1  D_1  S_1  

 **************************************************************************

 **************************************************************************

                    xk=(   0.64167,   0.04330,   0.00000  )

     Band symmetry, C_2v (mm2)  point group:

     e(  1 -  1) =    -14.77905  eV     1   --> B_2  D_4  S_4  
     e(  2 -  2) =    -14.09169  eV     1   --> A_1  D_1  S_1  
     e(  3 -  3) =    -11.97505  eV     1   --> A_1  D_1  S_1  
     e(  4 -  4) =     -2.35623  eV     1   --> A_2  D_2  S_2  
     e(  5 -  5) =     -1.08445  eV     1   --> B_1  D_3  S_3  
     e(  6 -  6) =      9.01192  eV     1   --> B_1  D_3  S_3  
     e(  7 -  7) =     10.82408  eV     1   --> B_2  D_4  S_4  
     e(  8 -  8) =     10.93449  eV     1   --> A_1  D_1  S_1  

 **************************************************************************

 **************************************************************************

                    xk=(   0.63333,   0.05774,   0.00000  )

     Band symmetry, C_2v (mm2)  point group:

     e(  1 -  1) =    -14.91719  eV     1   --> B_2  D_4  S_4  
     e(  2 -  2) =    -14.12072  eV     1   --> A_1  D_1  S_1  
     e(  3 -  3) =    -11.74356  eV     1   --> A_1  D_1  S_1  
     e(  4 -  4) =     -2.55019  eV     1   --> A_2  D_2  S_2  
     e(  5 -  5) =     -0.91211  eV     1   --> B_1  D_3  S_3  
     e(  6 -  6) =      9.09667  eV     1   --> B_1  D_3  S_3  
     e(  7 -  7) =     10.68919  eV     1   --> B_2  D_4  S_4  
     e(  8 -  8) =     10.71535  eV     1   --> A_1  D_1  S_1  

 **************************************************************************

 **************************************************************************

                    xk=(   0.62500,   0.07217,   0.00000  )

     Band symmetry, C_2v (mm2)  point group:

     e(  1 -  1) =    -15.04708  eV     1   --> B_2  D_4  S_4  
     e(  2 -  2) =    -14.17735  eV     1   --> A_1  D_1  S_1  
     e(  3 -  3) =    -11.47655  eV     1   --> A_1  D_1  S_1  
     e(  4 -  4) =     -2.73292  eV     1   --> A_2  D_2  S_2  
     e(  5 -  5) =     -0.75860  eV     1   --> B_1  D_3  S_3  
     e(  6 -  6) =      9.20362  eV     1   --> B_1  D_3  S_3  
     e(  7 -  7) =     10.40211  eV     1   --> A_1  D_1  S_1  
     e(  8 -  8) =     10.55110  eV     1   --> B_2  D_4  S_4  

 **************************************************************************

 **************************************************************************

                    xk=(   0.61667,   0.08660,   0.00000  )

     Band symmetry, C_2v (mm2)  point group:

     e(  1 -  1) =    -15.16869  eV     1   --> B_2  D_4  S_4  
     e(  2 -  2) =    -14.24948  eV     1   --> A_1  D_1  S_1  
     e(  3 -  3) =    -11.18742  eV     1   --> A_1  D_1  S_1  
     e(  4 -  4) =     -2.90432  eV     1   --> A_2  D_2  S_2  
     e(  5 -  5) =     -0.62382  eV     1   --> B_1  D_3  S_3  
     e(  6 -  6) =      9.32895  eV     1   --> B_1  D_3  S_3  
     e(  7 -  7) =     10.00804  eV     1   --> A_1  D_1  S_1  
     e(  8 -  8) =     10.41331  eV     1   --> B_2  D_4  S_4  

 **************************************************************************

 **************************************************************************

                    xk=(   0.60833,   0.10104,   0.00000  )

     Band symmetry, C_2v (mm2)  point group:

     e(  1 -  1) =    -15.28198  eV     1   --> B_2  D_4  S_4  
     e(  2 -  2) =    -14.32901  eV     1   --> A_1  D_1  S_1  
     e(  3 -  3) =    -10.88582  eV     1   --> A_1  D_1  S_1  
     e(  4 -  4) =     -3.06427  eV     1   --> A_2  D_2  S_2  
     e(  5 -  5) =     -0.50721  eV     1   --> B_1  D_3  S_3  
     e(  6 -  6) =      9.46709  eV     1   --> B_1  D_3  S_3  
     e(  7 -  7) =      9.57369  eV     1   --> A_1  D_1  S_1  
     e(  8 -  8) =     10.27855  eV     1   --> B_2  D_4  S_4  

 **************************************************************************

 **************************************************************************

                    xk=(   0.60000,   0.11547,   0.00000  )

     Band symmetry, C_2v (mm2)  point group:

     e(  1 -  1) =    -15.38695  eV     1   --> B_2  D_4  S_4  
     e(  2 -  2) =    -14.41075  eV     1   --> A_1  D_1  S_1  
     e(  3 -  3) =    -10.57884  eV     1   --> A_1  D_1  S_1  
     e(  4 -  4) =     -3.21267  eV     1   --> A_2  D_2  S_2  
     e(  5 -  5) =     -0.40780  eV     1   --> B_1  D_3  S_3  
     e(  6 -  6) =      9.12466  eV     1   --> A_1  D_1  S_1  
     e(  7 -  7) =      9.61073  eV     1   --> B_1  D_3  S_3  
     e(  8 -  8) =     10.14895  eV     1   --> B_2  D_4  S_4  

 **************************************************************************

 **************************************************************************

                    xk=(   0.59167,   0.12990,   0.00000  )

     Band symmetry, C_2v (mm2)  point group:

     e(  1 -  1) =    -15.48357  eV     1   --> B_2  D_4  S_4  
     e(  2 -  2) =    -14.49133  eV     1   --> A_1  D_1  S_1  
     e(  3 -  3) =    -10.27198  eV     1   --> A_1  D_1  S_1  
     e(  4 -  4) =     -3.34947  eV     1   --> A_2  D_2  S_2  
     e(  5 -  5) =     -0.32430  eV     1   --> B_1  D_3  S_3  
     e(  6 -  6) =      8.67536  eV     1   --> A_1  D_1  S_1  
     e(  7 -  7) =      9.75111  eV     1   --> B_1  D_3  S_3  
     e(  8 -  8) =     10.02614  eV     1   --> B_2  D_4  S_4  

 **************************************************************************

 **************************************************************************

                    xk=(   0.58333,   0.14434,   0.00000  )

     Band symmetry, C_2v (mm2)  point group:

     e(  1 -  1) =    -15.57183  eV     1   --> B_2  D_4  S_4  
     e(  2 -  2) =    -14.56855  eV     1   --> A_1  D_1  S_1  
     e(  3 -  3) =     -9.96994  eV     1   --> A_1  D_1  S_1  
     e(  4 -  4) =     -3.47460  eV     1   --> A_2  D_2  S_2  
     e(  5 -  5) =     -0.25519  eV     1   --> B_1  D_3  S_3  
     e(  6 -  6) =      8.23545  eV     1   --> A_1  D_1  S_1  
     e(  7 -  7) =      9.90985  eV     1   -->   ?
     e(  8 -  8) =      9.91259  eV     1   -->   ?

 **************************************************************************

 **************************************************************************

                    xk=(   0.57500,   0.15877,   0.00000  )

     Band symmetry, C_2v (mm2)  point group:

     e(  1 -  1) =    -15.65172  eV     1   --> B_2  D_4  S_4  
     e(  2 -  2) =    -14.64090  eV     1   --> A_1  D_1  S_1  
     e(  3 -  3) =     -9.67707  eV     1   --> A_1  D_1  S_1  
     e(  4 -  4) =     -3.58800  eV     1   --> A_2  D_2  S_2  
     e(  5 -  5) =     -0.19886  eV     1   --> B_1  D_3  S_3  
     e(  6 -  6) =      7.81239  eV     1   --> A_1  D_1  S_1  
     e(  7 -  7) =      9.80557  eV     1   --> B_2  D_4  S_4  
     e(  8 -  8) =      9.97506  eV     1   -->   ?

 **************************************************************************

 **************************************************************************

                    xk=(   0.56667,   0.17321,   0.00000  )

     Band symmetry, C_2v (mm2)  point group:

     e(  1 -  1) =    -15.72322  eV     1   --> B_2  D_4  S_4  
     e(  2 -  2) =    -14.70733  eV     1   --> A_1  D_1  S_1  
     e(  3 -  3) =     -9.39761  eV     1   --> A_1  D_1  S_1  
     e(  4 -  4) =     -3.68957  eV     1   --> A_2  D_2  S_2  
     e(  5 -  5) =     -0.15361  eV     1   --> B_1  D_3  S_3  
     e(  6 -  6) =      7.41262  eV     1   --> A_1  D_1  S_1  
     e(  7 -  7) =      9.70950  eV     1   --> B_2  D_4  S_4  
     e(  8 -  8) =      9.87007  eV     1   --> A_1  D_1  S_1  

 **************************************************************************

 **************************************************************************

                    xk=(   0.55833,   0.18764,   0.00000  )

     Band symmetry, C_2v (mm2)  point group:

     e(  1 -  1) =    -15.78635  eV     1   --> B_2  D_4  S_4  
     e(  2 -  2) =    -14.76712  eV     1   --> A_1  D_1  S_1  
     e(  3 -  3) =     -9.13587  eV     1   --> A_1  D_1  S_1  
     e(  4 -  4) =     -3.77933  eV     1   --> A_2  D_2  S_2  
     e(  5 -  5) =     -0.11788  eV     1   --> B_1  D_3  S_3  
     e(  6 -  6) =      7.04200  eV     1   --> A_1  D_1  S_1  
     e(  7 -  7) =      9.62371  eV     1   --> B_2  D_4  S_4  
     e(  8 -  8) =      9.77757  eV     1   --> A_1  D_1  S_1  

 **************************************************************************

 **************************************************************************

                    xk=(   0.55000,   0.20207,   0.00000  )

     Band symmetry, C_2v (mm2)  point group:

     e(  1 -  1) =    -15.84106  eV     1   --> B_2  D_4  S_4  
     e(  2 -  2) =    -14.81973  eV     1   --> A_1  D_1  S_1  
     e(  3 -  3) =     -8.89627  eV     1   --> A_1  D_1  S_1  
     e(  4 -  4) =     -3.85720  eV     1   --> A_2  D_2  S_2  
     e(  5 -  5) =     -0.09013  eV     1   --> B_1  D_3  S_3  
     e(  6 -  6) =      6.70614  eV     1   --> A_1  D_1  S_1  
     e(  7 -  7) =      9.54866  eV     1   --> B_2  D_4  S_4  
     e(  8 -  8) =      9.69703  eV     1   --> A_1  D_1  S_1  

 **************************************************************************

 **************************************************************************

                    xk=(   0.54167,   0.21651,   0.00000  )

     Band symmetry, C_2v (mm2)  point group:

     e(  1 -  1) =    -15.88737  eV     1   --> B_2  D_4  S_4  
     e(  2 -  2) =    -14.86476  eV     1   --> A_1  D_1  S_1  
     e(  3 -  3) =     -8.68326  eV     1   --> A_1  D_1  S_1  
     e(  4 -  4) =     -3.92314  eV     1   --> A_2  D_2  S_2  
     e(  5 -  5) =     -0.06899  eV     1   --> B_1  D_3  S_3  
     e(  6 -  6) =      6.41042  eV     1   --> A_1  D_1  S_1  
     e(  7 -  7) =      9.48467  eV     1   --> B_2  D_4  S_4  
     e(  8 -  8) =      9.62861  eV     1   --> A_1  D_1  S_1  

 **************************************************************************

 **************************************************************************

                    xk=(   0.53333,   0.23094,   0.00000  )

     Band symmetry, C_2v (mm2)  point group:

     e(  1 -  1) =    -15.92527  eV     1   --> B_2  D_4  S_4  
     e(  2 -  2) =    -14.90195  eV     1   --> A_1  D_1  S_1  
     e(  3 -  3) =     -8.50130  eV     1   --> A_1  D_1  S_1  
     e(  4 -  4) =     -3.97714  eV     1   --> A_2  D_2  S_2  
     e(  5 -  5) =     -0.05332  eV     1   --> B_1  D_3  S_3  
     e(  6 -  6) =      6.15994  eV     1   --> A_1  D_1  S_1  
     e(  7 -  7) =      9.43200  eV     1   --> B_2  D_4  S_4  
     e(  8 -  8) =      9.57245  eV     1   --> A_1  D_1  S_1  

 **************************************************************************

 **************************************************************************

                    xk=(   0.52500,   0.24537,   0.00000  )

     Band symmetry, C_2v (mm2)  point group:

     e(  1 -  1) =    -15.95475  eV     1   --> B_2  D_4  S_4  
     e(  2 -  2) =    -14.93107  eV     1   --> A_1  D_1  S_1  
     e(  3 -  3) =     -8.35456  eV     1   --> A_1  D_1  S_1  
     e(  4 -  4) =     -4.01917  eV     1   --> A_2  D_2  S_2  
     e(  5 -  5) =     -0.04214  eV     1   --> B_1  D_3  S_3  
     e(  6 -  6) =      5.95942  eV     1   --> A_1  D_1  S_1  
     e(  7 -  7) =      9.39086  eV     1   --> B_2  D_4  S_4  
     e(  8 -  8) =      9.52867  eV     1   --> A_1  D_1  S_1  

 **************************************************************************

 **************************************************************************

                    xk=(   0.51667,   0.25981,   0.00000  )

     Band symmetry, C_2v (mm2)  point group:

     e(  1 -  1) =    -15.97581  eV     1   --> B_2  D_4  S_4  
     e(  2 -  2) =    -14.95197  eV     1   --> A_1  D_1  S_1  
     e(  3 -  3) =     -8.24676  eV     1   --> A_1  D_1  S_1  
     e(  4 -  4) =     -4.04920  eV     1   --> A_2  D_2  S_2  
     e(  5 -  5) =     -0.03470  eV     1   --> B_1  D_3  S_3  
     e(  6 -  6) =      5.81295  eV     1   --> A_1  D_1  S_1  
     e(  7 -  7) =      9.36137  eV     1   --> B_2  D_4  S_4  
     e(  8 -  8) =      9.49734  eV     1   --> A_1  D_1  S_1  

 **************************************************************************

 **************************************************************************

                    xk=(   0.50833,   0.27424,   0.00000  )

     Band symmetry, C_2v (mm2)  point group:

     e(  1 -  1) =    -15.98845  eV     1   --> B_2  D_4  S_4  
     e(  2 -  2) =    -14.96455  eV     1   --> A_1  D_1  S_1  
     e(  3 -  3) =     -8.18082  eV     1   --> A_1  D_1  S_1  
     e(  4 -  4) =     -4.06721  eV     1   --> A_2  D_2  S_2  
     e(  5 -  5) =     -0.03045  eV     1   --> B_1  D_3  S_3  
     e(  6 -  6) =      5.72371  eV     1   --> A_1  D_1  S_1  
     e(  7 -  7) =      9.34364  eV     1   --> B_2  D_4  S_4  
     e(  8 -  8) =      9.47852  eV     1   --> A_1  D_1  S_1  

 **************************************************************************

 **************************************************************************

                    xk=(   0.50000,   0.28868,   0.00000  )

     point group D_2h (mmm) 
     there are  8 classes
     the character table:

       E     C2    C2'   C2''  i     s_v   s_v'  s_v''
A_g    1.00  1.00  1.00  1.00  1.00  1.00  1.00  1.00
B_1g   1.00  1.00 -1.00 -1.00  1.00  1.00 -1.00 -1.00
B_2g   1.00 -1.00  1.00 -1.00  1.00 -1.00  1.00 -1.00
B_3g   1.00 -1.00 -1.00  1.00  1.00 -1.00 -1.00  1.00
A_u    1.00  1.00  1.00  1.00 -1.00 -1.00 -1.00 -1.00
B_1u   1.00  1.00 -1.00 -1.00 -1.00 -1.00  1.00  1.00
B_2u   1.00 -1.00  1.00 -1.00 -1.00  1.00 -1.00  1.00
B_3u   1.00 -1.00 -1.00  1.00 -1.00  1.00  1.00 -1.00

     the symmetry operations in each class and the name of the first element:

     E        1
                                                                 
     C2       2
                                                                 
     C2'      4
                                                                 
     C2''     3
                                                                 
     i        5
                                                                 
     s_v      6
                                                                 
     s_v'     8
                                                                 
     s_v''    7
                                                                 

     Band symmetry, D_2h (mmm)  point group:

     e(  1 -  1) =    -15.99265  eV     1   --> B_3u           
     e(  2 -  2) =    -14.96873  eV     1   --> A_g            
     e(  3 -  3) =     -8.15862  eV     1   --> B_2u           
     e(  4 -  4) =     -4.07320  eV     1   --> B_2g           
     e(  5 -  5) =     -0.02908  eV     1   --> B_1u           
     e(  6 -  6) =      5.69373  eV     1   --> A_g            
     e(  7 -  7) =      9.33773  eV     1   --> B_3u           
     e(  8 -  8) =      9.47224  eV     1   --> A_g            

 **************************************************************************

 **************************************************************************

                    xk=(   0.48333,   0.27905,   0.00000  )

     point group C_2v (mm2) 
     there are  4 classes
     the character table:

       E     C2    s_v   s_v' 
A_1    1.00  1.00  1.00  1.00
A_2    1.00  1.00 -1.00 -1.00
B_1    1.00 -1.00  1.00 -1.00
B_2    1.00 -1.00 -1.00  1.00

     the symmetry operations in each class and the name of the first element:

     E        1
                                                                 
     C2       2
                                                                 
     s_v      3
                                                                 
     s_v'     4
                                                                 

     Band symmetry, C_2v (mm2)  point group:

     e(  1 -  1) =    -16.10595  eV     1   --> A_1  D_1  S_1  
     e(  2 -  2) =    -14.84570  eV     1   --> A_1  D_1  S_1  
     e(  3 -  3) =     -8.15209  eV     1   --> B_1  D_3  S_3  
     e(  4 -  4) =     -4.11633  eV     1   --> B_2  D_4  S_4  
     e(  5 -  5) =      0.02434  eV     1   --> B_2  D_4  S_4  
     e(  6 -  6) =      5.69697  eV     1   --> A_1  D_1  S_1  
     e(  7 -  7) =      8.89128  eV     1   --> A_1  D_1  S_1  
     e(  8 -  8) =      9.74819  eV     1   -->   ?

 **************************************************************************

 **************************************************************************

                    xk=(   0.46667,   0.26943,   0.00000  )

     Band symmetry, C_2v (mm2)  point group:

     e(  1 -  1) =    -16.35640  eV     1   --> A_1  D_1  S_1  
     e(  2 -  2) =    -14.56596  eV     1   --> A_1  D_1  S_1  
     e(  3 -  3) =     -8.13249  eV     1   --> B_1  D_3  S_3  
     e(  4 -  4) =     -4.23917  eV     1   --> B_2  D_4  S_4  
     e(  5 -  5) =      0.17794  eV     1   --> B_2  D_4  S_4  
     e(  6 -  6) =      5.70670  eV     1   --> A_1  D_1  S_1  
     e(  7 -  7) =      8.39794  eV     1   --> A_1  D_1  S_1  
     e(  8 -  8) =      9.25510  eV     1   --> B_2  D_4  S_4  

 **************************************************************************

 **************************************************************************

                    xk=(   0.45000,   0.25981,   0.00000  )

     Band symmetry, C_2v (mm2)  point group:

     e(  1 -  1) =    -16.65077  eV     1   --> A_1  D_1  S_1  
     e(  2 -  2) =    -14.22291  eV     1   --> A_1  D_1  S_1  
     e(  3 -  3) =     -8.09990  eV     1   --> B_1  D_3  S_3  
     e(  4 -  4) =     -4.42567  eV     1   --> B_2  D_4  S_4  
     e(  5 -  5) =      0.41555  eV     1   --> B_2  D_4  S_4  
     e(  6 -  6) =      5.72270  eV     1   --> A_1  D_1  S_1  
     e(  7 -  7) =      7.91824  eV     1   --> A_1  D_1  S_1  
     e(  8 -  8) =      8.77477  eV     1   --> B_2  D_4  S_4  

 **************************************************************************

 **************************************************************************

                    xk=(   0.43333,   0.25019,   0.00000  )

     Band symmetry, C_2v (mm2)  point group:

     e(  1 -  1) =    -16.95564  eV     1   --> A_1  D_1  S_1  
     e(  2 -  2) =    -13.85013  eV     1   --> A_1  D_1  S_1  
     e(  3 -  3) =     -8.05441  eV     1   --> B_1  D_3  S_3  
     e(  4 -  4) =     -4.65752  eV     1   --> B_2  D_4  S_4  
     e(  5 -  5) =      0.71841  eV     1   --> B_2  D_4  S_4  
     e(  6 -  6) =      5.74458  eV     1   --> A_1  D_1  S_1  
     e(  7 -  7) =      7.45422  eV     1   --> A_1  D_1  S_1  
     e(  8 -  8) =      8.30863  eV     1   --> B_2  D_4  S_4  

 **************************************************************************

 **************************************************************************

                    xk=(   0.41667,   0.24056,   0.00000  )

     Band symmetry, C_2v (mm2)  point group:

     e(  1 -  1) =    -17.25943  eV     1   --> A_1  D_1  S_1  
     e(  2 -  2) =    -13.45946  eV     1   --> A_1  D_1  S_1  
     e(  3 -  3) =     -7.99619  eV     1   --> B_1  D_3  S_3  
     e(  4 -  4) =     -4.91872  eV     1   --> B_2  D_4  S_4  
     e(  5 -  5) =      1.07006  eV     1   --> B_2  D_4  S_4  
     e(  6 -  6) =      5.77147  eV     1   --> A_1  D_1  S_1  
     e(  7 -  7) =      7.00726  eV     1   --> A_1  D_1  S_1  
     e(  8 -  8) =      7.85793  eV     1   --> B_2  D_4  S_4  

 **************************************************************************

 **************************************************************************

                    xk=(   0.40000,   0.23094,   0.00000  )

     Band symmetry, C_2v (mm2)  point group:

     e(  1 -  1) =    -17.55733  eV     1   --> A_1  D_1  S_1  
     e(  2 -  2) =    -13.05609  eV     1   --> A_1  D_1  S_1  
     e(  3 -  3) =     -7.92545  eV     1   --> B_1  D_3  S_3  
     e(  4 -  4) =     -5.19717  eV     1   --> B_2  D_4  S_4  
     e(  5 -  5) =      1.45771  eV     1   --> B_2  D_4  S_4  
     e(  6 -  6) =      5.80095  eV     1   --> A_1  D_1  S_1  
     e(  7 -  7) =      6.57986  eV     1   --> A_1  D_1  S_1  
     e(  8 -  8) =      7.42338  eV     1   --> B_2  D_4  S_4  

 **************************************************************************

 **************************************************************************

                    xk=(   0.38333,   0.22132,   0.00000  )

     Band symmetry, C_2v (mm2)  point group:

     e(  1 -  1) =    -17.84701  eV     1   --> A_1  D_1  S_1  
     e(  2 -  2) =    -12.64276  eV     1   --> A_1  D_1  S_1  
     e(  3 -  3) =     -7.84243  eV     1   --> B_1  D_3  S_3  
     e(  4 -  4) =     -5.48411  eV     1   --> B_2  D_4  S_4  
     e(  5 -  5) =      1.87180  eV     1   --> B_2  D_4  S_4  
     e(  6 -  6) =      5.82054  eV     1   --> A_1  D_1  S_1  
     e(  7 -  7) =      6.18430  eV     1   --> A_1  D_1  S_1  
     e(  8 -  8) =      7.00551  eV     1   --> B_2  D_4  S_4  

 **************************************************************************

 **************************************************************************

                    xk=(   0.36667,   0.21170,   0.00000  )

     Band symmetry, C_2v (mm2)  point group:

     e(  1 -  1) =    -18.12713  eV     1   --> A_1  D_1  S_1  
     e(  2 -  2) =    -12.22132  eV     1   --> A_1  D_1  S_1  
     e(  3 -  3) =     -7.74744  eV     1   --> B_1  D_3  S_3  
     e(  4 -  4) =     -5.77339  eV     1   --> B_2  D_4  S_4  
     e(  5 -  5) =      2.30509  eV     1   --> B_2  D_4  S_4  
     e(  6 -  6) =      5.69049  eV     1   --> A_1  D_1  S_1  
     e(  7 -  7) =      5.95951  eV     1   --> A_1  D_1  S_1  
     e(  8 -  8) =      6.60474  eV     1   --> B_2  D_4  S_4  

 **************************************************************************

 **************************************************************************

                    xk=(   0.35000,   0.20207,   0.00000  )

     Band symmetry, C_2v (mm2)  point group:

     e(  1 -  1) =    -18.39685  eV     1   --> A_1  D_1  S_1  
     e(  2 -  2) =    -11.79318  eV     1   --> A_1  D_1  S_1  
     e(  3 -  3) =     -7.64085  eV     1   --> B_1  D_3  S_3  
     e(  4 -  4) =     -6.06062  eV     1   --> B_2  D_4  S_4  
     e(  5 -  5) =      2.75197  eV     1   --> B_2  D_4  S_4  
     e(  6 -  6) =      5.34485  eV     1   --> A_1  D_1  S_1  
     e(  7 -  7) =      5.96851  eV     1   --> A_1  D_1  S_1  
     e(  8 -  8) =      6.22155  eV     1   --> B_2  D_4  S_4  

 **************************************************************************

 **************************************************************************

                    xk=(   0.33333,   0.19245,   0.00000  )

     Band symmetry, C_2v (mm2)  point group:

     e(  1 -  1) =    -18.65565  eV     1   --> A_1  D_1  S_1  
     e(  2 -  2) =    -11.35964  eV     1   --> A_1  D_1  S_1  
     e(  3 -  3) =     -7.52311  eV     1   --> B_1  D_3  S_3  
     e(  4 -  4) =     -6.34270  eV     1   --> B_2  D_4  S_4  
     e(  5 -  5) =      3.20752  eV     1   --> B_2  D_4  S_4  
     e(  6 -  6) =      4.98744  eV     1   --> A_1  D_1  S_1  
     e(  7 -  7) =      5.85667  eV     1   -->   ?
     e(  8 -  8) =      5.97928  eV     1   --> A_1  D_1  S_1  

 **************************************************************************

 **************************************************************************

                    xk=(   0.31667,   0.18283,   0.00000  )

     Band symmetry, C_2v (mm2)  point group:

     e(  1 -  1) =    -18.90311  eV     1   --> A_1  D_1  S_1  
     e(  2 -  2) =    -10.92198  eV     1   --> A_1  D_1  S_1  
     e(  3 -  3) =     -7.39477  eV     1   --> B_1  D_3  S_3  
     e(  4 -  4) =     -6.61730  eV     1   --> B_2  D_4  S_4  
     e(  5 -  5) =      3.66680  eV     1   --> B_2  D_4  S_4  
     e(  6 -  6) =      4.64275  eV     1   --> A_1  D_1  S_1  
     e(  7 -  7) =      5.51113  eV     1   --> B_2  D_4  S_4  
     e(  8 -  8) =      5.74379  eV     1   --> A_1  D_1  S_1  

 **************************************************************************

 **************************************************************************

                    xk=(   0.30000,   0.17321,   0.00000  )

     Band symmetry, C_2v (mm2)  point group:

     e(  1 -  1) =    -19.13892  eV     1   --> A_1  D_1  S_1  
     e(  2 -  2) =    -10.48149  eV     1   --> A_1  D_1  S_1  
     e(  3 -  3) =     -7.25642  eV     1   --> B_1  D_3  S_3  
     e(  4 -  4) =     -6.88270  eV     1   --> B_2  D_4  S_4  
     e(  5 -  5) =      4.12169  eV     1   --> B_2  D_4  S_4  
     e(  6 -  6) =      4.31402  eV     1   --> A_1  D_1  S_1  
     e(  7 -  7) =      5.19016  eV     1   --> B_2  D_4  S_4  
     e(  8 -  8) =      5.41946  eV     1   --> A_1  D_1  S_1  

 **************************************************************************

 **************************************************************************

                    xk=(   0.28333,   0.16358,   0.00000  )

     Band symmetry, C_2v (mm2)  point group:

     e(  1 -  1) =    -19.36286  eV     1   --> A_1  D_1  S_1  
     e(  2 -  2) =    -10.03957  eV     1   --> A_1  D_1  S_1  
     e(  3 -  3) =     -7.13761  eV     1   --> B_2  D_4  S_4  
     e(  4 -  4) =     -7.10882  eV     1   --> B_1  D_3  S_3  
     e(  5 -  5) =      4.00217  eV     1   --> A_1  D_1  S_1  
     e(  6 -  6) =      4.52703  eV     1   --> B_2  D_4  S_4  
     e(  7 -  7) =      4.93545  eV     1   --> B_2  D_4  S_4  
     e(  8 -  8) =      5.10557  eV     1   --> A_1  D_1  S_1  

 **************************************************************************

 **************************************************************************

                    xk=(   0.26667,   0.15396,   0.00000  )

     Band symmetry, C_2v (mm2)  point group:

     e(  1 -  1) =    -19.57472  eV     1   --> A_1  D_1  S_1  
     e(  2 -  2) =     -9.59776  eV     1   --> A_1  D_1  S_1  
     e(  3 -  3) =     -7.38098  eV     1   --> B_2  D_4  S_4  
     e(  4 -  4) =     -6.95283  eV     1   --> B_1  D_3  S_3  
     e(  5 -  5) =      3.70761  eV     1   --> A_1  D_1  S_1  
     e(  6 -  6) =      4.50220  eV     1   --> B_2  D_4  S_4  
     e(  7 -  7) =      4.80805  eV     1   --> A_1  D_1  S_1  
     e(  8 -  8) =      5.12409  eV     1   --> B_2  D_4  S_4  

 **************************************************************************

 **************************************************************************

                    xk=(   0.25000,   0.14434,   0.00000  )

     Band symmetry, C_2v (mm2)  point group:

     e(  1 -  1) =    -19.77436  eV     1   --> A_1  D_1  S_1  
     e(  2 -  2) =     -9.15780  eV     1   --> A_1  D_1  S_1  
     e(  3 -  3) =     -7.61203  eV     1   --> B_2  D_4  S_4  
     e(  4 -  4) =     -6.78943  eV     1   --> B_1  D_3  S_3  
     e(  5 -  5) =      3.43053  eV     1   --> A_1  D_1  S_1  
     e(  6 -  6) =      4.24969  eV     1   --> B_2  D_4  S_4  
     e(  7 -  7) =      4.52794  eV     1   --> A_1  D_1  S_1  
     e(  8 -  8) =      5.54738  eV     1   --> B_2  D_4  S_4  

 **************************************************************************

 **************************************************************************

                    xk=(   0.23333,   0.13472,   0.00000  )

     Band symmetry, C_2v (mm2)  point group:

     e(  1 -  1) =    -19.96161  eV     1   --> A_1  D_1  S_1  
     e(  2 -  2) =     -8.72157  eV     1   --> A_1  D_1  S_1  
     e(  3 -  3) =     -7.83010  eV     1   --> B_2  D_4  S_4  
     e(  4 -  4) =     -6.61980  eV     1   --> B_1  D_3  S_3  
     e(  5 -  5) =      3.17107  eV     1   --> A_1  D_1  S_1  
     e(  6 -  6) =      3.99579  eV     1   --> B_2  D_4  S_4  
     e(  7 -  7) =      4.26560  eV     1   --> A_1  D_1  S_1  
     e(  8 -  8) =      5.94457  eV     1   -->   ?

 **************************************************************************

 **************************************************************************

                    xk=(   0.21667,   0.12509,   0.00000  )

     Band symmetry, C_2v (mm2)  point group:

     e(  1 -  1) =    -20.13637  eV     1   --> A_1  D_1  S_1  
     e(  2 -  2) =     -8.29126  eV     1   --> A_1  D_1  S_1  
     e(  3 -  3) =     -8.03468  eV     1   --> B_2  D_4  S_4  
     e(  4 -  4) =     -6.44528  eV     1   --> B_1  D_3  S_3  
     e(  5 -  5) =      2.92930  eV     1   --> A_1  D_1  S_1  
     e(  6 -  6) =      3.75564  eV     1   --> B_2  D_4  S_4  
     e(  7 -  7) =      4.02119  eV     1   --> A_1  D_1  S_1  
     e(  8 -  8) =      5.94398  eV     1   -->   ?

 **************************************************************************

 **************************************************************************

                    xk=(   0.20000,   0.11547,   0.00000  )

     Band symmetry, C_2v (mm2)  point group:

     e(  1 -  1) =    -20.29853  eV     1   --> A_1  D_1  S_1  
     e(  2 -  2) =     -8.22535  eV     1   --> B_2  D_4  S_4  
     e(  3 -  3) =     -7.86930  eV     1   --> A_1  D_1  S_1  
     e(  4 -  4) =     -6.26745  eV     1   --> B_1  D_3  S_3  
     e(  5 -  5) =      2.70530  eV     1   --> A_1  D_1  S_1  
     e(  6 -  6) =      3.53188  eV     1   --> B_2  D_4  S_4  
     e(  7 -  7) =      3.79478  eV     1   --> A_1  D_1  S_1  
     e(  8 -  8) =      5.73983  eV     1   --> B_2  D_4  S_4  

 **************************************************************************

 **************************************************************************

                    xk=(   0.18333,   0.10585,   0.00000  )

     Band symmetry, C_2v (mm2)  point group:

     e(  1 -  1) =    -20.44801  eV     1   --> A_1  D_1  S_1  
     e(  2 -  2) =     -8.40174  eV     1   --> B_2  D_4  S_4  
     e(  3 -  3) =     -7.45847  eV     1   --> A_1  D_1  S_1  
     e(  4 -  4) =     -6.08813  eV     1   --> B_1  D_3  S_3  
     e(  5 -  5) =      2.49912  eV     1   --> A_1  D_1  S_1  
     e(  6 -  6) =      3.32535  eV     1   --> B_2  D_4  S_4  
     e(  7 -  7) =      3.58642  eV     1   --> A_1  D_1  S_1  
     e(  8 -  8) =      5.53999  eV     1   --> B_2  D_4  S_4  

 **************************************************************************

 **************************************************************************

                    xk=(   0.16667,   0.09623,   0.00000  )

     Band symmetry, C_2v (mm2)  point group:

     e(  1 -  1) =    -20.58472  eV     1   --> A_1  D_1  S_1  
     e(  2 -  2) =     -8.56359  eV     1   --> B_2  D_4  S_4  
     e(  3 -  3) =     -7.06189  eV     1   --> A_1  D_1  S_1  
     e(  4 -  4) =     -5.90937  eV     1   --> B_1  D_3  S_3  
     e(  5 -  5) =      2.31078  eV     1   --> A_1  D_1  S_1  
     e(  6 -  6) =      3.13640  eV     1   --> B_2  D_4  S_4  
     e(  7 -  7) =      3.39615  eV     1   --> A_1  D_1  S_1  
     e(  8 -  8) =      5.35510  eV     1   --> B_2  D_4  S_4  

 **************************************************************************

 **************************************************************************

                    xk=(   0.15000,   0.08660,   0.00000  )

     Band symmetry, C_2v (mm2)  point group:

     e(  1 -  1) =    -20.70860  eV     1   --> A_1  D_1  S_1  
     e(  2 -  2) =     -8.71061  eV     1   --> B_2  D_4  S_4  
     e(  3 -  3) =     -6.68303  eV     1   --> A_1  D_1  S_1  
     e(  4 -  4) =     -5.73352  eV     1   --> B_1  D_3  S_3  
     e(  5 -  5) =      2.14033  eV     1   --> A_1  D_1  S_1  
     e(  6 -  6) =      2.96522  eV     1   --> B_2  D_4  S_4  
     e(  7 -  7) =      3.22398  eV     1   --> A_1  D_1  S_1  
     e(  8 -  8) =      5.18672  eV     1   --> B_2  D_4  S_4  

 **************************************************************************

 **************************************************************************

                    xk=(   0.13333,   0.07698,   0.00000  )

     Band symmetry, C_2v (mm2)  point group:

     e(  1 -  1) =    -20.81959  eV     1   --> A_1  D_1  S_1  
     e(  2 -  2) =     -8.84263  eV     1   --> B_2  D_4  S_4  
     e(  3 -  3) =     -6.32577  eV     1   --> A_1  D_1  S_1  
     e(  4 -  4) =     -5.56330  eV     1   --> B_1  D_3  S_3  
     e(  5 -  5) =      1.98778  eV     1   --> A_1  D_1  S_1  
     e(  6 -  6) =      2.81191  eV     1   --> B_2  D_4  S_4  
     e(  7 -  7) =      3.06991  eV     1   --> A_1  D_1  S_1  
     e(  8 -  8) =      5.03566  eV     1   --> B_2  D_4  S_4  

 **************************************************************************

 **************************************************************************

                    xk=(   0.11667,   0.06736,   0.00000  )

     Band symmetry, C_2v (mm2)  point group:

     e(  1 -  1) =    -20.91764  eV     1   --> A_1  D_1  S_1  
     e(  2 -  2) =     -8.95947  eV     1   --> B_2  D_4  S_4  
     e(  3 -  3) =     -5.99431  eV     1   --> A_1  D_1  S_1  
     e(  4 -  4) =     -5.40160  eV     1   --> B_1  D_3  S_3  
     e(  5 -  5) =      1.85315  eV     1   --> A_1  D_1  S_1  
     e(  6 -  6) =      2.67653  eV     1   --> B_2  D_4  S_4  
     e(  7 -  7) =      2.93397  eV     1   --> A_1  D_1  S_1  
     e(  8 -  8) =      4.90211  eV     1   --> B_2  D_4  S_4  

 **************************************************************************

 **************************************************************************

                    xk=(   0.10000,   0.05774,   0.00000  )

     Band symmetry, C_2v (mm2)  point group:

     e(  1 -  1) =    -21.00269  eV     1   --> A_1  D_1  S_1  
     e(  2 -  2) =     -9.06098  eV     1   --> B_2  D_4  S_4  
     e(  3 -  3) =     -5.69322  eV     1   --> A_1  D_1  S_1  
     e(  4 -  4) =     -5.25162  eV     1   --> B_1  D_3  S_3  
     e(  5 -  5) =      1.73646  eV     1   --> A_1  D_1  S_1  
     e(  6 -  6) =      2.55915  eV     1   --> B_2  D_4  S_4  
     e(  7 -  7) =      2.81616  eV     1   --> A_1  D_1  S_1  
     e(  8 -  8) =      4.78623  eV     1   --> B_2  D_4  S_4  

 **************************************************************************

 **************************************************************************

                    xk=(   0.08333,   0.04811,   0.00000  )

     Band symmetry, C_2v (mm2)  point group:

     e(  1 -  1) =    -21.07473  eV     1   --> A_1  D_1  S_1  
     e(  2 -  2) =     -9.14707  eV     1   --> B_2  D_4  S_4  
     e(  3 -  3) =     -5.42728  eV     1   --> A_1  D_1  S_1  
     e(  4 -  4) =     -5.11673  eV     1   --> B_1  D_3  S_3  
     e(  5 -  5) =      1.63773  eV     1   --> A_1  D_1  S_1  
     e(  6 -  6) =      2.45978  eV     1   --> B_2  D_4  S_4  
     e(  7 -  7) =      2.71648  eV     1   --> A_1  D_1  S_1  
     e(  8 -  8) =      4.68809  eV     1   --> B_2  D_4  S_4  

 **************************************************************************

 **************************************************************************

                    xk=(   0.06667,   0.03849,   0.00000  )

     Band symmetry, C_2v (mm2)  point group:

     e(  1 -  1) =    -21.13370  eV     1   --> A_1  D_1  S_1  
     e(  2 -  2) =     -9.21763  eV     1   --> B_2  D_4  S_4  
     e(  3 -  3) =     -5.20126  eV     1   --> A_1  D_1  S_1  
     e(  4 -  4) =     -5.00033  eV     1   --> B_1  D_3  S_3  
     e(  5 -  5) =      1.55694  eV     1   --> A_1  D_1  S_1  
     e(  6 -  6) =      2.37845  eV     1   --> B_2  D_4  S_4  
     e(  7 -  7) =      2.63493  eV     1   --> A_1  D_1  S_1  
     e(  8 -  8) =      4.60770  eV     1   --> B_2  D_4  S_4  

 **************************************************************************

 **************************************************************************

                    xk=(   0.05000,   0.02887,   0.00000  )

     Band symmetry, C_2v (mm2)  point group:

     e(  1 -  1) =    -21.17960  eV     1   --> A_1  D_1  S_1  
     e(  2 -  2) =     -9.27257  eV     1   --> B_2  D_4  S_4  
     e(  3 -  3) =     -5.01972  eV     1   --> A_1  D_1  S_1  
     e(  4 -  4) =     -4.90567  eV     1   --> B_1  D_3  S_3  
     e(  5 -  5) =      1.49411  eV     1   --> A_1  D_1  S_1  
     e(  6 -  6) =      2.31517  eV     1   --> B_2  D_4  S_4  
     e(  7 -  7) =      2.57150  eV     1   --> A_1  D_1  S_1  
     e(  8 -  8) =      4.54517  eV     1   --> B_2  D_4  S_4  

 **************************************************************************

 **************************************************************************

                    xk=(   0.03333,   0.01925,   0.00000  )

     Band symmetry, C_2v (mm2)  point group:

     e(  1 -  1) =    -21.21239  eV     1   --> A_1  D_1  S_1  
     e(  2 -  2) =     -9.31186  eV     1   --> B_2  D_4  S_4  
     e(  3 -  3) =     -4.88674  eV     1   --> A_1  D_1  S_1  
     e(  4 -  4) =     -4.83572  eV     1   --> B_1  D_3  S_3  
     e(  5 -  5) =      1.44923  eV     1   --> A_1  D_1  S_1  
     e(  6 -  6) =      2.26997  eV     1   --> B_2  D_4  S_4  
     e(  7 -  7) =      2.52620  eV     1   --> A_1  D_1  S_1  
     e(  8 -  8) =      4.50054  eV     1   --> B_2  D_4  S_4  

 **************************************************************************

 **************************************************************************

                    xk=(   0.01667,   0.00962,   0.00000  )

     Band symmetry, C_2v (mm2)  point group:

     e(  1 -  1) =    -21.23208  eV     1   --> A_1  D_1  S_1  
     e(  2 -  2) =     -9.33544  eV     1   --> B_2  D_4  S_4  
     e(  3 -  3) =     -4.80553  eV     1   --> A_1  D_1  S_1  
     e(  4 -  4) =     -4.79274  eV     1   --> B_1  D_3  S_3  
     e(  5 -  5) =      1.42231  eV     1   --> A_1  D_1  S_1  
     e(  6 -  6) =      2.24285  eV     1   --> B_2  D_4  S_4  
     e(  7 -  7) =      2.49902  eV     1   --> A_1  D_1  S_1  
     e(  8 -  8) =      4.47367  eV     1   --> B_2  D_4  S_4  

 **************************************************************************

 **************************************************************************

                    xk=(   0.00000,   0.00000,   0.00000  )

     point group D_6h(6/mmm)
     there are 12 classes
     the character table:

       E     2C6   2C3   C2    3C2'  3C2'' i     2S3   2S6   s_h   3s_d  3s_v 
A_1g   1.00  1.00  1.00  1.00  1.00  1.00  1.00  1.00  1.00  1.00  1.00  1.00
A_2g   1.00  1.00  1.00  1.00 -1.00 -1.00  1.00  1.00  1.00  1.00 -1.00 -1.00
B_1g   1.00 -1.00  1.00 -1.00  1.00 -1.00  1.00 -1.00  1.00 -1.00  1.00 -1.00
B_2g   1.00 -1.00  1.00 -1.00 -1.00  1.00  1.00 -1.00  1.00 -1.00 -1.00  1.00
E_1g   2.00  1.00 -1.00 -2.00  0.00  0.00  2.00  1.00 -1.00 -2.00  0.00  0.00
E_2g   2.00 -1.00 -1.00  2.00  0.00  0.00  2.00 -1.00 -1.00  2.00  0.00  0.00
A_1u   1.00  1.00  1.00  1.00  1.00  1.00 -1.00 -1.00 -1.00 -1.00 -1.00 -1.00
A_2u   1.00  1.00  1.00  1.00 -1.00 -1.00 -1.00 -1.00 -1.00 -1.00  1.00  1.00
B_1u   1.00 -1.00  1.00 -1.00  1.00 -1.00 -1.00  1.00 -1.00  1.00 -1.00  1.00
B_2u   1.00 -1.00  1.00 -1.00 -1.00  1.00 -1.00  1.00 -1.00  1.00  1.00 -1.00
E_1u   2.00  1.00 -1.00 -2.00  0.00  0.00 -2.00 -1.00  1.00  2.00  0.00  0.00
E_2u   2.00 -1.00 -1.00  2.00  0.00  0.00 -2.00  1.00  1.00 -2.00  0.00  0.00

     the symmetry operations in each class and the name of the first element:

     E        1
                                                                 
     2C6      5    6
                                                                 
     2C3      7    8
                                                                 
     C2       2
                                                                 
     3C2'     4   12   11
                                                                 
     3C2''    3    9   10
                                                                 
     i       13
                                                                 
     2S3     17   18
                                                                 
     2S6     19   20
                                                                 
     s_h     14
                                                                 
     3s_d    16   24   23
                                                                 
     3s_v    15   21   22
                                                                 

     Band symmetry, D_6h(6/mmm) point group:

     e(  1 -  1) =    -21.23864  eV     1   --> A_1g           
     e(  2 -  2) =     -9.34331  eV     1   --> A_2u           
     e(  3 -  4) =     -4.77825  eV     2   --> E_2g           
     e(  5 -  5) =      1.41333  eV     1   --> A_1g           
     e(  6 -  6) =      2.23381  eV     1   --> A_2u           
     e(  7 -  7) =      2.48997  eV     1   --> A_1g           
     e(  8 -  8) =      4.46473  eV     1   --> A_2u           

 **************************************************************************

     BANDS        :      5.92s CPU      4.84s WALL


   This run was terminated on:   8:33:51  24Mar2025            

=------------------------------------------------------------------------------=
   JOB DONE.
=------------------------------------------------------------------------------=
Note: The following floating-point exceptions are signalling: IEEE_DENORMAL
Note: The following floating-point exceptions are signalling: IEEE_DENORMAL
Note: The following floating-point exceptions are signalling: IEEE_DENORMAL
