
     Program PWSCF v.7.4.1 starts on 19Mar2025 at  4:56:34 

     This program is part of the open-source Quantum ESPRESSO suite
     for quantum simulation of materials; please cite
         "P. Giannozzi et al., J. Phys.:Condens. Matter 21 395502 (2009);
         "P. Giannozzi et al., J. Phys.:Condens. Matter 29 465901 (2017);
         "P. Giannozzi et al., J. Chem. Phys. 152 154105 (2020);
          URL http://www.quantum-espresso.org", 
     in publications or presentations arising from this work. More details at
     http://www.quantum-espresso.org/quote

     Parallel version (MPI), running on     7 processors

     MPI processes distributed on     1 nodes
     2660 MiB available memory on the printing compute node when the environment starts

     Waiting for input...
     Reading input from standard input

     Current dimensions of program PWSCF are:
     Max number of different atomic species (ntypx) = 10
     Max number of k-points (npk) =  40000
     Max angular momentum in pseudopotentials (lmaxx) =  4

     Atomic positions and unit cell read from directory:
     /run/media/rfa/SATA/Skripsi/DFT/Graphene-copy/tmp/gr-1L.save/


     R & G space division:  proc/nbgrp/npool/nimage =       7
     Subspace diagonalization in iterative solution of the eigenvalue problem:
     a serial algorithm will be used


     Parallelization info
     --------------------
     sticks:   dense  smooth     PW     G-vecs:    dense   smooth      PW
     Min          51      51     15                 4783     4783     815
     Max          52      52     16                 4800     4800     838
     Sum         361     361    109                33523    33523    5791

     Using Slab Decomposition



     bravais-lattice index     =            4
     lattice parameter (alat)  =       4.6561  a.u.
     unit-cell volume          =     532.1899 (a.u.)^3
     number of atoms/cell      =            2
     number of atomic types    =            1
     number of electrons       =         8.00
     number of Kohn-Sham states=            8
     kinetic-energy cutoff     =      60.0000  Ry
     charge density cutoff     =     240.0000  Ry
     Exchange-correlation= PBE
                           (   1   4   3   4   0   0   0)

     celldm(1)=   4.656107  celldm(2)=   0.000000  celldm(3)=   6.087896
     celldm(4)=   0.000000  celldm(5)=   0.000000  celldm(6)=   0.000000

     crystal axes: (cart. coord. in units of alat)
               a(1) = (   1.000000   0.000000   0.000000 )  
               a(2) = (  -0.500000   0.866025   0.000000 )  
               a(3) = (   0.000000   0.000000   6.087896 )  

     reciprocal axes: (cart. coord. in units 2 pi/alat)
               b(1) = (  1.000000  0.577350 -0.000000 )  
               b(2) = (  0.000000  1.154701  0.000000 )  
               b(3) = (  0.000000 -0.000000  0.164260 )  


     PseudoPot. # 1 for C  read from file:
     /run/media/rfa/SATA/Skripsi/DFT/Graphene-copy/pseudo/C.pbe-n-rrkjus_psl.0.1.UPF
     MD5 check sum: 96a6a315177d77e6c95bf6fd3870f9e3
     Pseudo is Ultrasoft + core correction, Zval =  4.0
     Generated using &quot;atomic&quot; code by A. Dal Corso  v.6.3MaX
     Using radial grid of 1073 points,  4 beta functions with: 
                l(1) =   0
                l(2) =   0
                l(3) =   1
                l(4) =   1
     Q(r) pseudized with 0 coefficients 


     atomic species   valence    mass     pseudopotential
     C                 4.00    12.01070     C ( 1.00)

     24 Sym. Ops., with inversion, found



   Cartesian axes

     site n.     atom                  positions (alat units)
         1        C      tau(   1) = (   0.0000000   0.5773503   3.0439478  )
         2        C      tau(   2) = (   0.5000000   0.2886751   3.0439478  )

     number of k points=    91  Marzari-Vanderbilt smearing, width (Ry)=  0.0200
                       cart. coord. in units 2pi/alat
        k(    1) = (   0.0000000   0.0000000   0.0000000), wk =   0.0219780
        k(    2) = (   0.0166667   0.0000000   0.0000000), wk =   0.0219780
        k(    3) = (   0.0333333   0.0000000   0.0000000), wk =   0.0219780
        k(    4) = (   0.0500000   0.0000000   0.0000000), wk =   0.0219780
        k(    5) = (   0.0666667   0.0000000   0.0000000), wk =   0.0219780
        k(    6) = (   0.0833333   0.0000000   0.0000000), wk =   0.0219780
        k(    7) = (   0.1000000   0.0000000   0.0000000), wk =   0.0219780
        k(    8) = (   0.1166667   0.0000000   0.0000000), wk =   0.0219780
        k(    9) = (   0.1333333   0.0000000   0.0000000), wk =   0.0219780
        k(   10) = (   0.1500000   0.0000000   0.0000000), wk =   0.0219780
        k(   11) = (   0.1666667   0.0000000   0.0000000), wk =   0.0219780
        k(   12) = (   0.1833333   0.0000000   0.0000000), wk =   0.0219780
        k(   13) = (   0.2000000   0.0000000   0.0000000), wk =   0.0219780
        k(   14) = (   0.2166667   0.0000000   0.0000000), wk =   0.0219780
        k(   15) = (   0.2333333   0.0000000   0.0000000), wk =   0.0219780
        k(   16) = (   0.2500000   0.0000000   0.0000000), wk =   0.0219780
        k(   17) = (   0.2666667   0.0000000   0.0000000), wk =   0.0219780
        k(   18) = (   0.2833333   0.0000000   0.0000000), wk =   0.0219780
        k(   19) = (   0.3000000   0.0000000   0.0000000), wk =   0.0219780
        k(   20) = (   0.3166667   0.0000000   0.0000000), wk =   0.0219780
        k(   21) = (   0.3333333   0.0000000   0.0000000), wk =   0.0219780
        k(   22) = (   0.3500000   0.0000000   0.0000000), wk =   0.0219780
        k(   23) = (   0.3666667   0.0000000   0.0000000), wk =   0.0219780
        k(   24) = (   0.3833333   0.0000000   0.0000000), wk =   0.0219780
        k(   25) = (   0.4000000   0.0000000   0.0000000), wk =   0.0219780
        k(   26) = (   0.4166667   0.0000000   0.0000000), wk =   0.0219780
        k(   27) = (   0.4333333   0.0000000   0.0000000), wk =   0.0219780
        k(   28) = (   0.4500000   0.0000000   0.0000000), wk =   0.0219780
        k(   29) = (   0.4666667   0.0000000   0.0000000), wk =   0.0219780
        k(   30) = (   0.4833333   0.0000000   0.0000000), wk =   0.0219780
        k(   31) = (   0.5000000   0.0000000   0.0000000), wk =   0.0219780
        k(   32) = (   0.5166667   0.0000000   0.0000000), wk =   0.0219780
        k(   33) = (   0.5333333   0.0000000   0.0000000), wk =   0.0219780
        k(   34) = (   0.5500000   0.0000000   0.0000000), wk =   0.0219780
        k(   35) = (   0.5666667   0.0000000   0.0000000), wk =   0.0219780
        k(   36) = (   0.5833333   0.0000000   0.0000000), wk =   0.0219780
        k(   37) = (   0.6000000   0.0000000   0.0000000), wk =   0.0219780
        k(   38) = (   0.6166667   0.0000000   0.0000000), wk =   0.0219780
        k(   39) = (   0.6333333   0.0000000   0.0000000), wk =   0.0219780
        k(   40) = (   0.6500000   0.0000000   0.0000000), wk =   0.0219780
        k(   41) = (   0.6666667   0.0000000   0.0000000), wk =   0.0219780
        k(   42) = (   0.6583333   0.0144338   0.0000000), wk =   0.0219780
        k(   43) = (   0.6500000   0.0288675   0.0000000), wk =   0.0219780
        k(   44) = (   0.6416667   0.0433013   0.0000000), wk =   0.0219780
        k(   45) = (   0.6333333   0.0577350   0.0000000), wk =   0.0219780
        k(   46) = (   0.6250000   0.0721688   0.0000000), wk =   0.0219780
        k(   47) = (   0.6166667   0.0866025   0.0000000), wk =   0.0219780
        k(   48) = (   0.6083333   0.1010363   0.0000000), wk =   0.0219780
        k(   49) = (   0.6000000   0.1154701   0.0000000), wk =   0.0219780
        k(   50) = (   0.5916667   0.1299038   0.0000000), wk =   0.0219780
        k(   51) = (   0.5833333   0.1443376   0.0000000), wk =   0.0219780
        k(   52) = (   0.5750000   0.1587713   0.0000000), wk =   0.0219780
        k(   53) = (   0.5666667   0.1732051   0.0000000), wk =   0.0219780
        k(   54) = (   0.5583333   0.1876388   0.0000000), wk =   0.0219780
        k(   55) = (   0.5500000   0.2020726   0.0000000), wk =   0.0219780
        k(   56) = (   0.5416667   0.2165064   0.0000000), wk =   0.0219780
        k(   57) = (   0.5333333   0.2309401   0.0000000), wk =   0.0219780
        k(   58) = (   0.5250000   0.2453739   0.0000000), wk =   0.0219780
        k(   59) = (   0.5166667   0.2598076   0.0000000), wk =   0.0219780
        k(   60) = (   0.5083333   0.2742414   0.0000000), wk =   0.0219780
        k(   61) = (   0.5000000   0.2886751   0.0000000), wk =   0.0219780
        k(   62) = (   0.4833333   0.2790526   0.0000000), wk =   0.0219780
        k(   63) = (   0.4666667   0.2694301   0.0000000), wk =   0.0219780
        k(   64) = (   0.4500000   0.2598076   0.0000000), wk =   0.0219780
        k(   65) = (   0.4333333   0.2501851   0.0000000), wk =   0.0219780
        k(   66) = (   0.4166667   0.2405626   0.0000000), wk =   0.0219780
        k(   67) = (   0.4000000   0.2309401   0.0000000), wk =   0.0219780
        k(   68) = (   0.3833333   0.2213176   0.0000000), wk =   0.0219780
        k(   69) = (   0.3666667   0.2116951   0.0000000), wk =   0.0219780
        k(   70) = (   0.3500000   0.2020726   0.0000000), wk =   0.0219780
        k(   71) = (   0.3333333   0.1924501   0.0000000), wk =   0.0219780
        k(   72) = (   0.3166667   0.1828276   0.0000000), wk =   0.0219780
        k(   73) = (   0.3000000   0.1732051   0.0000000), wk =   0.0219780
        k(   74) = (   0.2833333   0.1635826   0.0000000), wk =   0.0219780
        k(   75) = (   0.2666667   0.1539601   0.0000000), wk =   0.0219780
        k(   76) = (   0.2500000   0.1443376   0.0000000), wk =   0.0219780
        k(   77) = (   0.2333333   0.1347151   0.0000000), wk =   0.0219780
        k(   78) = (   0.2166667   0.1250926   0.0000000), wk =   0.0219780
        k(   79) = (   0.2000000   0.1154701   0.0000000), wk =   0.0219780
        k(   80) = (   0.1833333   0.1058475   0.0000000), wk =   0.0219780
        k(   81) = (   0.1666667   0.0962250   0.0000000), wk =   0.0219780
        k(   82) = (   0.1500000   0.0866025   0.0000000), wk =   0.0219780
        k(   83) = (   0.1333333   0.0769800   0.0000000), wk =   0.0219780
        k(   84) = (   0.1166667   0.0673575   0.0000000), wk =   0.0219780
        k(   85) = (   0.1000000   0.0577350   0.0000000), wk =   0.0219780
        k(   86) = (   0.0833333   0.0481125   0.0000000), wk =   0.0219780
        k(   87) = (   0.0666667   0.0384900   0.0000000), wk =   0.0219780
        k(   88) = (   0.0500000   0.0288675   0.0000000), wk =   0.0219780
        k(   89) = (   0.0333333   0.0192450   0.0000000), wk =   0.0219780
        k(   90) = (   0.0166667   0.0096225   0.0000000), wk =   0.0219780
        k(   91) = (   0.0000000   0.0000000   0.0000000), wk =   0.0219780

     Dense  grid:    33523 G-vectors     FFT dimensions: (  24,  24, 144)

     Estimated max dynamical RAM per process >       5.34 MB

     Estimated total dynamical RAM >      37.41 MB

     Check: negative core charge=   -0.000003

     The potential is recalculated from file :
     /run/media/rfa/SATA/Skripsi/DFT/Graphene-copy/tmp/gr-1L.save/charge-density


     negative rho (up, down):  1.269E-04 0.000E+00
     Starting wfcs are    8 randomized atomic wfcs

     Band Structure Calculation
     Davidson diagonalization with overlap
     c_bands:  1 eigenvalues not converged
     c_bands:  1 eigenvalues not converged
     c_bands:  1 eigenvalues not converged
     c_bands:  4 eigenvalues not converged
     c_bands:  1 eigenvalues not converged
     c_bands:  1 eigenvalues not converged
     c_bands:  1 eigenvalues not converged
     c_bands:  1 eigenvalues not converged
     c_bands:  1 eigenvalues not converged
     c_bands:  1 eigenvalues not converged
     c_bands:  1 eigenvalues not converged
     c_bands:  1 eigenvalues not converged
     c_bands:  1 eigenvalues not converged
     c_bands:  1 eigenvalues not converged
     c_bands:  2 eigenvalues not converged
     c_bands:  1 eigenvalues not converged
     c_bands:  1 eigenvalues not converged
     c_bands:  2 eigenvalues not converged
     c_bands:  2 eigenvalues not converged
     c_bands:  2 eigenvalues not converged
     c_bands:  2 eigenvalues not converged
     c_bands:  3 eigenvalues not converged
     c_bands:  1 eigenvalues not converged
     c_bands:  3 eigenvalues not converged
     c_bands:  1 eigenvalues not converged
     c_bands:  2 eigenvalues not converged
     c_bands:  1 eigenvalues not converged
     c_bands:  1 eigenvalues not converged
     c_bands:  1 eigenvalues not converged
     c_bands:  1 eigenvalues not converged
     c_bands:  2 eigenvalues not converged

     ethr =  1.25E-08,  avg # of iterations =105.8

     total cpu time spent up to now is       32.0 secs

     End of band structure calculation

          k = 0.0000 0.0000 0.0000 (  4149 PWs)   bands (ev):

   -21.2386  -9.3433  -4.7783  -4.7783   1.4133   2.2338   2.4900   4.4648

          k = 0.0167 0.0000 0.0000 (  4143 PWs)   bands (ev):

   -21.2337  -9.3374  -4.7987  -4.7891   1.4201   2.2406   2.4968   4.4714

          k = 0.0333 0.0000 0.0000 (  4147 PWs)   bands (ev):

   -21.2190  -9.3197  -4.8595  -4.8218   1.4403   2.2609   2.5171   4.4915

          k = 0.0500 0.0000 0.0000 (  4165 PWs)   bands (ev):

   -21.1944  -9.2902  -4.9590  -4.8758   1.4739   2.2948   2.5511   4.5251

          k = 0.0667 0.0000 0.0000 (  4169 PWs)   bands (ev):

   -21.1599  -9.2490  -5.0943  -4.9507   1.5210   2.3423   2.5987   4.5720

          k = 0.0833 0.0000 0.0000 (  4169 PWs)   bands (ev):

   -21.1157  -9.1960  -5.2622  -5.0460   1.5816   2.4033   2.6598   4.6323

          k = 0.1000 0.0000 0.0000 (  4169 PWs)   bands (ev):

   -21.0616  -9.1314  -5.4589  -5.1608   1.6557   2.4778   2.7346   4.7063

          k = 0.1167 0.0000 0.0000 (  4175 PWs)   bands (ev):

   -20.9978  -9.0551  -5.6807  -5.2941   1.7432   2.5659   2.8230   4.7929

          k = 0.1333 0.0000 0.0000 (  4171 PWs)   bands (ev):

   -20.9242  -8.9672  -5.9235  -5.4449   1.8442   2.6675   2.9249   4.8933

          k = 0.1500 0.0000 0.0000 (  4179 PWs)   bands (ev):

   -20.8408  -8.8679  -6.1840  -5.6120   1.9587   2.7826   3.0405   5.0069

          k = 0.1667 0.0000 0.0000 (  4169 PWs)   bands (ev):

   -20.7478  -8.7571  -6.4588  -5.7941   2.0866   2.9112   3.1697   5.1337

          k = 0.1833 0.0000 0.0000 (  4167 PWs)   bands (ev):

   -20.6450  -8.6349  -6.7449  -5.9900   2.2280   3.0532   3.3125   5.2738

          k = 0.2000 0.0000 0.0000 (  4179 PWs)   bands (ev):

   -20.5326  -8.5016  -7.0398  -6.1984   2.3828   3.2087   3.4689   5.4271

          k = 0.2167 0.0000 0.0000 (  4175 PWs)   bands (ev):

   -20.4107  -8.3572  -7.3411  -6.4178   2.5511   3.3776   3.6389   5.5934

          k = 0.2333 0.0000 0.0000 (  4163 PWs)   bands (ev):

   -20.2791  -8.2018  -7.6469  -6.6469   2.7328   3.5598   3.8226   5.7732

          k = 0.2500 0.0000 0.0000 (  4163 PWs)   bands (ev):

   -20.1381  -8.0357  -7.9554  -6.8844   2.9279   3.7553   4.0198   5.9649

          k = 0.2667 0.0000 0.0000 (  4174 PWs)   bands (ev):

   -19.9877  -8.2652  -7.8589  -7.1290   3.1364   3.9640   4.2306   6.1572

          k = 0.2833 0.0000 0.0000 (  4170 PWs)   bands (ev):

   -19.8278  -8.5750  -7.6718  -7.3794   3.3582   4.1859   4.4550   5.7925

          k = 0.3000 0.0000 0.0000 (  4172 PWs)   bands (ev):

   -19.6587  -8.8836  -7.6345  -7.4745   3.5933   4.4209   4.6929   5.4235

          k = 0.3167 0.0000 0.0000 (  4170 PWs)   bands (ev):

   -19.4805  -9.1902  -7.8931  -7.2672   3.8417   4.6689   4.9445   5.0518

          k = 0.3333 0.0000 0.0000 (  4170 PWs)   bands (ev):

   -19.2931  -9.4939  -8.1541  -7.0504   4.1034   4.6788   4.9296   5.2095

          k = 0.3500 0.0000 0.0000 (  4176 PWs)   bands (ev):

   -19.0967  -9.7940  -8.4165  -6.8243   4.3058   4.3782   5.2029   5.4881

          k = 0.3667 0.0000 0.0000 (  4166 PWs)   bands (ev):

   -18.8915 -10.0898  -8.6793  -6.5893   3.9341   4.6661   5.4885   5.7802

          k = 0.3833 0.0000 0.0000 (  4182 PWs)   bands (ev):

   -18.6776 -10.3809  -8.9417  -6.3458   3.5646   4.9670   5.7861   6.0858

          k = 0.4000 0.0000 0.0000 (  4174 PWs)   bands (ev):

   -18.4553 -10.6668  -9.2026  -6.0943   3.1984   5.2809   6.0951   6.4047

          k = 0.4167 0.0000 0.0000 (  4180 PWs)   bands (ev):

   -18.2246 -10.9470  -9.4613  -5.8353   2.8363   5.6076   6.4148   6.7371

          k = 0.4333 0.0000 0.0000 (  4168 PWs)   bands (ev):

   -17.9858 -11.2213  -9.7171  -5.5695   2.4791   5.9469   6.7442   7.0828

          k = 0.4500 0.0000 0.0000 (  4172 PWs)   bands (ev):

   -17.7393 -11.4893  -9.9690  -5.2975   2.1275   6.2986   7.0816   7.4418

          k = 0.4667 0.0000 0.0000 (  4164 PWs)   bands (ev):

   -17.4853 -11.7508 -10.2163  -5.0200   1.7822   6.6625   7.4244   7.8140

          k = 0.4833 0.0000 0.0000 (  4150 PWs)   bands (ev):

   -17.2243 -12.0055 -10.4583  -4.7380   1.4437   7.0382   7.7681   8.1991

          k = 0.5000 0.0000 0.0000 (  4156 PWs)   bands (ev):

   -16.9568 -12.2532 -10.6942  -4.4524   1.1126   7.4253   8.1050   8.5972

          k = 0.5167 0.0000 0.0000 (  4156 PWs)   bands (ev):

   -16.6835 -12.4937 -10.9229  -4.1644   0.7894   7.8231   8.4214   9.0078

          k = 0.5333 0.0000 0.0000 (  4156 PWs)   bands (ev):

   -16.4053 -12.7269 -11.1435  -3.8751   0.4744   8.2306   8.6943   9.4306

          k = 0.5500 0.0000 0.0000 (  4156 PWs)   bands (ev):

   -16.1232 -12.9527 -11.3547  -3.5860   0.1681   8.6464   8.8938   9.8651

          k = 0.5667 0.0000 0.0000 (  4142 PWs)   bands (ev):

   -15.8387 -13.1708 -11.5549  -3.2985  -0.1292   9.0021   9.0685  10.3099

          k = 0.5833 0.0000 0.0000 (  4144 PWs)   bands (ev):

   -15.5542 -13.3813 -11.7420  -3.0143  -0.4172   9.0325   9.4933  10.7625

          k = 0.6000 0.0000 0.0000 (  4140 PWs)   bands (ev):

   -15.2728 -13.5840 -11.9129  -2.7351  -0.6955   9.0160   9.9149  11.2415

          k = 0.6167 0.0000 0.0000 (  4154 PWs)   bands (ev):

   -14.9992 -13.7788 -12.0629  -2.4630  -0.9641   8.9799  10.3227  11.3113

          k = 0.6333 0.0000 0.0000 (  4166 PWs)   bands (ev):

   -14.7406 -13.9657 -12.1850  -2.1998  -1.2225   8.9424  10.6962  11.2884

          k = 0.6500 0.0000 0.0000 (  4156 PWs)   bands (ev):

   -14.5078 -14.1446 -12.2689  -1.9475  -1.4706   8.9150  10.9961  11.2389

          k = 0.6667 0.0000 0.0000 (  4152 PWs)   bands (ev):

   -14.3154 -14.3154 -12.3004  -1.7082  -1.7082   8.9047  11.1638  11.1638

          k = 0.6583 0.0144 0.0000 (  4152 PWs)   bands (ev):

   -14.4781 -14.1788 -12.2646  -1.9351  -1.4835   8.9161  11.0665  11.1781

          k = 0.6500 0.0289 0.0000 (  4156 PWs)   bands (ev):

   -14.6327 -14.1060 -12.1540  -2.1512  -1.2752   8.9515  10.9515  11.0880

          k = 0.6417 0.0433 0.0000 (  4148 PWs)   bands (ev):

   -14.7791 -14.0917 -11.9750  -2.3562  -1.0845   9.0119  10.8241  10.9345

          k = 0.6333 0.0577 0.0000 (  4144 PWs)   bands (ev):

   -14.9172 -14.1207 -11.7436  -2.5502  -0.9121   9.0967  10.6892  10.7153

          k = 0.6250 0.0722 0.0000 (  4160 PWs)   bands (ev):

   -15.0471 -14.1774 -11.4765  -2.7329  -0.7586   9.2036  10.4021  10.5511

          k = 0.6167 0.0866 0.0000 (  4172 PWs)   bands (ev):

   -15.1687 -14.2495 -11.1874  -2.9043  -0.6238   9.3289  10.0080  10.4133

          k = 0.6083 0.1010 0.0000 (  4180 PWs)   bands (ev):

   -15.2820 -14.3290 -10.8858  -3.0643  -0.5072   9.4671   9.5737  10.2785

          k = 0.6000 0.1155 0.0000 (  4182 PWs)   bands (ev):

   -15.3870 -14.4107 -10.5788  -3.2127  -0.4078   9.1247   9.6107  10.1489

          k = 0.5917 0.1299 0.0000 (  4180 PWs)   bands (ev):

   -15.4836 -14.4913 -10.2720  -3.3495  -0.3243   8.6754   9.7511  10.0261

          k = 0.5833 0.1443 0.0000 (  4178 PWs)   bands (ev):

   -15.5718 -14.5685  -9.9699  -3.4746  -0.2552   8.2355   9.9098   9.9126

          k = 0.5750 0.1588 0.0000 (  4186 PWs)   bands (ev):

   -15.6517 -14.6409  -9.6771  -3.5880  -0.1989   7.8124   9.8056   9.9751

          k = 0.5667 0.1732 0.0000 (  4178 PWs)   bands (ev):

   -15.7232 -14.7073  -9.3976  -3.6896  -0.1536   7.4126   9.7095   9.8701

          k = 0.5583 0.1876 0.0000 (  4186 PWs)   bands (ev):

   -15.7863 -14.7671  -9.1359  -3.7793  -0.1179   7.0420   9.6237   9.7776

          k = 0.5500 0.2021 0.0000 (  4188 PWs)   bands (ev):

   -15.8411 -14.8197  -8.8963  -3.8572  -0.0901   6.7061   9.5487   9.6970

          k = 0.5417 0.2165 0.0000 (  4184 PWs)   bands (ev):

   -15.8874 -14.8648  -8.6833  -3.9231  -0.0690   6.4104   9.4847   9.6286

          k = 0.5333 0.2309 0.0000 (  4192 PWs)   bands (ev):

   -15.9253 -14.9020  -8.5013  -3.9771  -0.0533   6.1599   9.4320   9.5725

          k = 0.5250 0.2454 0.0000 (  4198 PWs)   bands (ev):

   -15.9547 -14.9311  -8.3546  -4.0192  -0.0421   5.9594   9.3909   9.5287

          k = 0.5167 0.2598 0.0000 (  4198 PWs)   bands (ev):

   -15.9758 -14.9520  -8.2468  -4.0492  -0.0347   5.8130   9.3614   9.4973

          k = 0.5083 0.2742 0.0000 (  4194 PWs)   bands (ev):

   -15.9884 -14.9645  -8.1808  -4.0672  -0.0304   5.7237   9.3436   9.4785

          k = 0.5000 0.2887 0.0000 (  4184 PWs)   bands (ev):

   -15.9927 -14.9687  -8.1586  -4.0732  -0.0291   5.6937   9.3377   9.4722

          k = 0.4833 0.2791 0.0000 (  4194 PWs)   bands (ev):

   -16.1059 -14.8457  -8.1521  -4.1163   0.0243   5.6970   8.8913   9.7482

          k = 0.4667 0.2694 0.0000 (  4200 PWs)   bands (ev):

   -16.3564 -14.5660  -8.1325  -4.2392   0.1779   5.7067   8.3979   9.2551

          k = 0.4500 0.2598 0.0000 (  4194 PWs)   bands (ev):

   -16.6508 -14.2229  -8.0999  -4.4257   0.4155   5.7227   7.9182   8.7748

          k = 0.4333 0.2502 0.0000 (  4186 PWs)   bands (ev):

   -16.9556 -13.8501  -8.0544  -4.6575   0.7184   5.7446   7.4542   8.3086

          k = 0.4167 0.2406 0.0000 (  4172 PWs)   bands (ev):

   -17.2594 -13.4595  -7.9962  -4.9187   1.0701   5.7715   7.0073   7.8579

          k = 0.4000 0.2309 0.0000 (  4176 PWs)   bands (ev):

   -17.5573 -13.0561  -7.9255  -5.1972   1.4577   5.8010   6.5799   7.4234

          k = 0.3833 0.2213 0.0000 (  4186 PWs)   bands (ev):

   -17.8470 -12.6428  -7.8424  -5.4841   1.8718   5.8205   6.1843   7.0055

          k = 0.3667 0.2117 0.0000 (  4190 PWs)   bands (ev):

   -18.1271 -12.2213  -7.7474  -5.7734   2.3051   5.6905   5.9595   6.6047

          k = 0.3500 0.2021 0.0000 (  4184 PWs)   bands (ev):

   -18.3969 -11.7932  -7.6409  -6.0606   2.7520   5.3448   5.9685   6.2215

          k = 0.3333 0.1925 0.0000 (  4180 PWs)   bands (ev):

   -18.6556 -11.3596  -7.5231  -6.3427   3.2075   4.9874   5.8567   5.9793

          k = 0.3167 0.1828 0.0000 (  4188 PWs)   bands (ev):

   -18.9031 -10.9220  -7.3948  -6.6173   3.6668   4.6427   5.5111   5.7438

          k = 0.3000 0.1732 0.0000 (  4180 PWs)   bands (ev):

   -19.1389 -10.4815  -7.2564  -6.8827   4.1217   4.3140   5.1902   5.4195

          k = 0.2833 0.1636 0.0000 (  4182 PWs)   bands (ev):

   -19.3629 -10.0396  -7.1376  -7.1088   4.0022   4.5270   4.9355   5.1056

          k = 0.2667 0.1540 0.0000 (  4180 PWs)   bands (ev):

   -19.5747  -9.5978  -7.3810  -6.9528   3.7076   4.5022   4.8080   5.1241

          k = 0.2500 0.1443 0.0000 (  4186 PWs)   bands (ev):

   -19.7744  -9.1578  -7.6120  -6.7894   3.4305   4.2497   4.5279   5.5474

          k = 0.2333 0.1347 0.0000 (  4184 PWs)   bands (ev):

   -19.9616  -8.7216  -7.8301  -6.6198   3.1711   3.9958   4.2656   5.9446

          k = 0.2167 0.1251 0.0000 (  4186 PWs)   bands (ev):

   -20.1364  -8.2913  -8.0347  -6.4453   2.9293   3.7556   4.0212   5.9440

          k = 0.2000 0.1155 0.0000 (  4186 PWs)   bands (ev):

   -20.2985  -8.2253  -7.8693  -6.2675   2.7053   3.5319   3.7948   5.7398

          k = 0.1833 0.1058 0.0000 (  4188 PWs)   bands (ev):

   -20.4480  -8.4017  -7.4585  -6.0881   2.4991   3.3253   3.5864   5.5400

          k = 0.1667 0.0962 0.0000 (  4194 PWs)   bands (ev):

   -20.5847  -8.5636  -7.0619  -5.9094   2.3108   3.1364   3.3961   5.3551

          k = 0.1500 0.0866 0.0000 (  4186 PWs)   bands (ev):

   -20.7086  -8.7106  -6.6830  -5.7335   2.1403   2.9652   3.2240   5.1867

          k = 0.1333 0.0770 0.0000 (  4198 PWs)   bands (ev):

   -20.8196  -8.8426  -6.3258  -5.5633   1.9878   2.8119   3.0699   5.0357

          k = 0.1167 0.0674 0.0000 (  4188 PWs)   bands (ev):

   -20.9176  -8.9595  -5.9943  -5.4016   1.8532   2.6765   2.9340   4.9021

          k = 0.1000 0.0577 0.0000 (  4174 PWs)   bands (ev):

   -21.0027  -9.0610  -5.6932  -5.2516   1.7365   2.5591   2.8162   4.7862

          k = 0.0833 0.0481 0.0000 (  4170 PWs)   bands (ev):

   -21.0747  -9.1471  -5.4273  -5.1167   1.6377   2.4598   2.7165   4.6881

          k = 0.0667 0.0385 0.0000 (  4170 PWs)   bands (ev):

   -21.1337  -9.2176  -5.2013  -5.0003   1.5569   2.3784   2.6349   4.6077

          k = 0.0500 0.0289 0.0000 (  4158 PWs)   bands (ev):

   -21.1796  -9.2726  -5.0197  -4.9057   1.4941   2.3152   2.5715   4.5452

          k = 0.0333 0.0192 0.0000 (  4154 PWs)   bands (ev):

   -21.2124  -9.3119  -4.8867  -4.8357   1.4492   2.2700   2.5262   4.5005

          k = 0.0167 0.0096 0.0000 (  4143 PWs)   bands (ev):

   -21.2321  -9.3354  -4.8055  -4.7927   1.4223   2.2428   2.4990   4.4737

          k = 0.0000 0.0000 0.0000 (  4149 PWs)   bands (ev):

   -21.2386  -9.3433  -4.7783  -4.7783   1.4133   2.2338   2.4900   4.4647

     Writing all to output data dir /run/media/rfa/SATA/Skripsi/DFT/Graphene-copy/tmp/gr-1L.save/ :
     XML data file, pseudopotentials, collected wavefunctions

     init_run     :      0.34s CPU      0.66s WALL (       1 calls)
     electrons    :     54.24s CPU     31.26s WALL (       1 calls)

     Called by init_run:
     wfcinit      :      0.00s CPU      0.00s WALL (       1 calls)
     potinit      :      0.01s CPU      0.01s WALL (       1 calls)
     hinit0       :      0.31s CPU      0.61s WALL (       1 calls)

     Called by electrons:
     c_bands      :     54.24s CPU     31.26s WALL (       1 calls)
     v_of_rho     :      0.01s CPU      0.01s WALL (       1 calls)
     newd         :      0.01s CPU      0.01s WALL (       1 calls)

     Called by c_bands:
     init_us_2    :      0.03s CPU      0.02s WALL (      91 calls)
     cegterg      :     53.54s CPU     30.84s WALL (     511 calls)

     Called by *egterg:
     cdiaghg      :      2.70s CPU      1.54s WALL (    9719 calls)
     h_psi        :     42.42s CPU     24.48s WALL (   10230 calls)
     s_psi        :      0.63s CPU      0.37s WALL (   10230 calls)
     g_psi        :      0.55s CPU      0.29s WALL (    9628 calls)

     Called by h_psi:
     h_psi:calbec :      3.40s CPU      2.02s WALL (   10230 calls)
     vloc_psi     :     37.57s CPU     21.57s WALL (   10230 calls)
     add_vuspsi   :      1.05s CPU      0.63s WALL (   10230 calls)

     General routines
     calbec       :      3.31s CPU      1.95s WALL (   10230 calls)
     fft          :      0.30s CPU      0.60s WALL (      12 calls)
     fftw         :     32.60s CPU     18.74s WALL (  127980 calls)
     davcio       :      0.02s CPU      0.02s WALL (     182 calls)

     Parallel routines

     PWSCF        :     54.71s CPU     32.12s WALL


   This run was terminated on:   4:57: 6  19Mar2025            

=------------------------------------------------------------------------------=
   JOB DONE.
=------------------------------------------------------------------------------=
Note: The following floating-point exceptions are signalling: IEEE_DENORMAL
