
     Program PWSCF v.7.4.1 starts on 16Apr2025 at 14:54:52 

     This program is part of the open-source Quantum ESPRESSO suite
     for quantum simulation of materials; please cite
         "P. Giannozzi et al., J. Phys.:Condens. Matter 21 395502 (2009);
         "P. Giannozzi et al., J. Phys.:Condens. Matter 29 465901 (2017);
         "P. Giannozzi et al., J. Chem. Phys. 152 154105 (2020);
          URL http://www.quantum-espresso.org", 
     in publications or presentations arising from this work. More details at
     http://www.quantum-espresso.org/quote

     Parallel version (MPI), running on     7 processors

     MPI processes distributed on     1 nodes
     13284 MiB available memory on the printing compute node when the environment starts

     Waiting for input...
     Reading input from standard input

     Current dimensions of program PWSCF are:
     Max number of different atomic species (ntypx) = 10
     Max number of k-points (npk) =  40000
     Max angular momentum in pseudopotentials (lmaxx) =  4

     R & G space division:  proc/nbgrp/npool/nimage =       7
     Subspace diagonalization in iterative solution of the eigenvalue problem:
     a serial algorithm will be used


     Parallelization info
     --------------------
     sticks:   dense  smooth     PW     G-vecs:    dense   smooth      PW
     Min          17      17      5                  919      919     181
     Max          18      18      6                  934      934     204
     Sum         121     121     37                 6489     6489    1321

     Using Slab Decomposition



     bravais-lattice index     =            4
     lattice parameter (alat)  =       4.6561  a.u.
     unit-cell volume          =     532.1899 (a.u.)^3
     number of atoms/cell      =            4
     number of atomic types    =            1
     number of electrons       =        16.00
     number of Kohn-Sham states=           12
     kinetic-energy cutoff     =      20.0000  Ry
     charge density cutoff     =      80.0000  Ry
     scf convergence threshold =      1.0E-08
     mixing beta               =       0.7000
     number of iterations used =            8  plain     mixing
     Exchange-correlation= PBE
                           (   1   4   3   4   0   0   0)

     celldm(1)=   4.656107  celldm(2)=   0.000000  celldm(3)=   6.087896
     celldm(4)=   0.000000  celldm(5)=   0.000000  celldm(6)=   0.000000

     crystal axes: (cart. coord. in units of alat)
               a(1) = (   1.000000   0.000000   0.000000 )  
               a(2) = (  -0.500000   0.866025   0.000000 )  
               a(3) = (   0.000000   0.000000   6.087896 )  

     reciprocal axes: (cart. coord. in units 2 pi/alat)
               b(1) = (  1.000000  0.577350 -0.000000 )  
               b(2) = (  0.000000  1.154701  0.000000 )  
               b(3) = (  0.000000 -0.000000  0.164260 )  


     PseudoPot. # 1 for C  read from file:
     /home/rfa/Skripsi/DFT/dft-graphene/pseudo/C.pbe-n-rrkjus_psl.0.1.UPF
     MD5 check sum: 96a6a315177d77e6c95bf6fd3870f9e3
     Pseudo is Ultrasoft + core correction, Zval =  4.0
     Generated using &quot;atomic&quot; code by A. Dal Corso  v.6.3MaX
     Using radial grid of 1073 points,  4 beta functions with: 
                l(1) =   0
                l(2) =   0
                l(3) =   1
                l(4) =   1
     Q(r) pseudized with 0 coefficients 


     atomic species   valence    mass     pseudopotential
     C                 4.00    12.01070     C ( 1.00)

      6 Sym. Ops. (no inversion) found



   Cartesian axes

     site n.     atom                  positions (alat units)
         1        C      tau(   1) = (   0.0000000   0.5773503   3.0439478  )
         2        C      tau(   2) = (   0.5000000   0.2886751   3.0439478  )
         3        C      tau(   3) = (   0.0000000   0.0000000   3.2468777  )
         4        C      tau(   4) = (   0.0000000   0.5773503   3.2468777  )

     number of k points=    19  Marzari-Vanderbilt smearing, width (Ry)=  0.0200
                       cart. coord. in units 2pi/alat
        k(    1) = (   0.0000000   0.0000000   0.0000000), wk =   0.0138889
        k(    2) = (   0.0000000   0.0962250   0.0000000), wk =   0.0833333
        k(    3) = (   0.0000000   0.1924501   0.0000000), wk =   0.0833333
        k(    4) = (   0.0000000   0.2886751   0.0000000), wk =   0.0833333
        k(    5) = (   0.0000000   0.3849002   0.0000000), wk =   0.0833333
        k(    6) = (   0.0000000   0.4811252   0.0000000), wk =   0.0833333
        k(    7) = (   0.0000000  -0.5773503   0.0000000), wk =   0.0416667
        k(    8) = (   0.0833333   0.1443376   0.0000000), wk =   0.0833333
        k(    9) = (   0.0833333   0.2405626   0.0000000), wk =   0.1666667
        k(   10) = (   0.0833333   0.3367877   0.0000000), wk =   0.1666667
        k(   11) = (   0.0833333   0.4330127   0.0000000), wk =   0.1666667
        k(   12) = (   0.0833333   0.5292377   0.0000000), wk =   0.1666667
        k(   13) = (   0.1666667   0.2886751   0.0000000), wk =   0.0833333
        k(   14) = (   0.1666667   0.3849002   0.0000000), wk =   0.1666667
        k(   15) = (   0.1666667   0.4811252   0.0000000), wk =   0.1666667
        k(   16) = (   0.1666667   0.5773503   0.0000000), wk =   0.0833333
        k(   17) = (   0.2500000   0.4330127   0.0000000), wk =   0.0833333
        k(   18) = (   0.2500000   0.5292377   0.0000000), wk =   0.1666667
        k(   19) = (   0.3333333   0.5773503   0.0000000), wk =   0.0277778

     Dense  grid:     6489 G-vectors     FFT dimensions: (  15,  15,  81)

     Estimated max dynamical RAM per process >       2.01 MB

     Estimated total dynamical RAM >      14.07 MB

     Check: negative core charge=   -0.000310

     Initial potential from superposition of free atoms

     starting charge      15.9998, renormalised to      16.0000

     negative rho (up, down):  1.235E-02 0.000E+00
     Starting wfcs are   16 randomized atomic wfcs

     total cpu time spent up to now is        0.3 secs

     per-process dynamical memory:     8.1 Mb

     Self-consistent Calculation

     iteration #  1     ecut=    20.00 Ry     beta= 0.70
     Davidson diagonalization with overlap
     ethr =  1.00E-02,  avg # of iterations =  4.3

     negative rho (up, down):  1.071E-01 0.000E+00

     total cpu time spent up to now is        0.6 secs

     total energy              =     -32.08492756 Ry
     estimated scf accuracy    <       3.71638374 Ry

     iteration #  2     ecut=    20.00 Ry     beta= 0.70
     Davidson diagonalization with overlap
     ethr =  1.00E-02,  avg # of iterations =  5.3

     negative rho (up, down):  3.148E-03 0.000E+00

     total cpu time spent up to now is        0.8 secs

     total energy              =     -31.13449193 Ry
     estimated scf accuracy    <       7.44075377 Ry

     iteration #  3     ecut=    20.00 Ry     beta= 0.70
     Davidson diagonalization with overlap
     ethr =  1.00E-02,  avg # of iterations =  4.5

     negative rho (up, down):  9.728E-03 0.000E+00

     total cpu time spent up to now is        1.1 secs

     total energy              =     -33.62385920 Ry
     estimated scf accuracy    <       0.38521214 Ry

     iteration #  4     ecut=    20.00 Ry     beta= 0.70
     Davidson diagonalization with overlap
     ethr =  2.41E-03,  avg # of iterations =  1.8

     negative rho (up, down):  2.106E-02 0.000E+00

     total cpu time spent up to now is        1.2 secs

     total energy              =     -33.59369542 Ry
     estimated scf accuracy    <       0.16331012 Ry

     iteration #  5     ecut=    20.00 Ry     beta= 0.70
     Davidson diagonalization with overlap
     ethr =  1.02E-03,  avg # of iterations =  1.8

     negative rho (up, down):  3.105E-02 0.000E+00

     total cpu time spent up to now is        1.4 secs

     total energy              =     -33.57109970 Ry
     estimated scf accuracy    <       0.08334494 Ry

     iteration #  6     ecut=    20.00 Ry     beta= 0.70
     Davidson diagonalization with overlap
     ethr =  5.21E-04,  avg # of iterations =  2.6

     negative rho (up, down):  5.811E-02 0.000E+00

     total cpu time spent up to now is        1.5 secs

     total energy              =     -33.54258192 Ry
     estimated scf accuracy    <       0.04483701 Ry

     iteration #  7     ecut=    20.00 Ry     beta= 0.70
     Davidson diagonalization with overlap
     ethr =  2.80E-04,  avg # of iterations =  5.8

     negative rho (up, down):  8.602E-02 0.000E+00

     total cpu time spent up to now is        1.7 secs

     total energy              =     -33.54039952 Ry
     estimated scf accuracy    <       0.00551597 Ry

     iteration #  8     ecut=    20.00 Ry     beta= 0.70
     Davidson diagonalization with overlap
     ethr =  3.45E-05,  avg # of iterations = 10.7

     negative rho (up, down):  8.014E-02 0.000E+00

     total cpu time spent up to now is        2.1 secs

     total energy              =     -33.54100096 Ry
     estimated scf accuracy    <       0.00035641 Ry

     iteration #  9     ecut=    20.00 Ry     beta= 0.70
     Davidson diagonalization with overlap
     c_bands:  1 eigenvalues not converged
     ethr =  2.23E-06,  avg # of iterations =  9.4

     negative rho (up, down):  8.022E-02 0.000E+00

     total cpu time spent up to now is        2.4 secs

     total energy              =     -33.54105809 Ry
     estimated scf accuracy    <       0.00000619 Ry

     iteration # 10     ecut=    20.00 Ry     beta= 0.70
     Davidson diagonalization with overlap
     ethr =  3.87E-08,  avg # of iterations =  3.5

     negative rho (up, down):  7.997E-02 0.000E+00

     total cpu time spent up to now is        2.6 secs

     total energy              =     -33.54106117 Ry
     estimated scf accuracy    <       0.00000036 Ry

     iteration # 11     ecut=    20.00 Ry     beta= 0.70
     Davidson diagonalization with overlap
     ethr =  2.26E-09,  avg # of iterations =  3.3

     negative rho (up, down):  8.002E-02 0.000E+00

     total cpu time spent up to now is        2.8 secs

     total energy              =     -33.54106144 Ry
     estimated scf accuracy    <       0.00000006 Ry

     iteration # 12     ecut=    20.00 Ry     beta= 0.70
     Davidson diagonalization with overlap
     ethr =  3.74E-10,  avg # of iterations =  1.9

     negative rho (up, down):  8.002E-02 0.000E+00

     total cpu time spent up to now is        2.9 secs

     End of self-consistent calculation

          k = 0.0000 0.0000 0.0000 (   815 PWs)   bands (ev):

   -31.3916 -23.6382 -23.6382 -15.6518 -10.0001 -10.0001  -5.8672   2.2071
     2.4073   3.6295   4.4844   5.0199

          k = 0.0000 0.0962 0.0000 (   825 PWs)   bands (ev):

   -31.3339 -24.0009 -23.8581 -15.5446  -9.8020  -9.4036  -5.7057   2.4262
     2.6335   3.7914   4.6523   5.1712

          k = 0.0000 0.1925 0.0000 (   824 PWs)   bands (ev):

   -31.2586 -24.6238 -24.3110 -14.9630  -9.0670  -7.6667  -5.3252   3.0941
     3.2722   3.4890   4.4152   5.5223

          k = 0.0000 0.2887 0.0000 (   796 PWs)   bands (ev):

   -31.0474 -25.1879 -24.2880 -13.9778  -7.2786  -4.7195  -4.6919   0.5178
     4.1362   4.4586   4.6981   5.5947

          k = 0.0000 0.3849 0.0000 (   806 PWs)   bands (ev):

   -30.9032 -26.0566 -24.7659 -12.6159  -6.5033  -4.5014  -2.1080  -1.6247
     3.2469   3.8696   5.8466   6.0702

          k = 0.0000 0.4811 0.0000 (   800 PWs)   bands (ev):

   -30.7732 -26.5027 -25.2365 -10.8154  -6.4846  -5.2510  -2.1082   1.1928
     1.4205   3.2608   5.9037   7.8389

          k = 0.0000-0.5774 0.0000 (   806 PWs)   bands (ev):

   -30.7457 -26.6771 -25.4189  -9.0206  -8.4023  -4.9847  -1.7050   0.0551
     3.0468   3.8913   4.0624  10.1235

          k = 0.0833 0.1443 0.0000 (   809 PWs)   bands (ev):

   -31.2110 -24.4107 -23.8612 -15.1316  -9.2471  -8.0539  -5.3469   2.8784
     3.0927   4.1862   4.6728   5.2038

          k = 0.0833 0.2406 0.0000 (   817 PWs)   bands (ev):

   -31.1820 -25.4058 -24.1773 -14.3697  -8.3233  -5.8164  -4.9131   2.1307
     3.7276   3.9851   4.1032   5.1881

          k = 0.0833 0.3368 0.0000 (   808 PWs)   bands (ev):

   -30.9921 -26.1371 -24.3178 -13.2124  -7.0134  -4.5191  -2.6310  -0.9611
     2.9409   4.0117   5.1247   5.3844

          k = 0.0833 0.4330 0.0000 (   803 PWs)   bands (ev):

   -30.8002 -26.7288 -24.6247 -11.6021  -6.1018  -4.8820  -2.4127   0.1246
     1.7769   2.4496   6.7996   7.1970

          k = 0.0833 0.5292 0.0000 (   808 PWs)   bands (ev):

   -30.6859 -27.1950 -24.8523  -9.7074  -7.4159  -5.0784  -1.9949  -0.1213
     1.4067   3.5768   6.1658   9.1830

          k = 0.1667 0.2887 0.0000 (   809 PWs)   bands (ev):

   -31.0249 -26.3107 -24.0188 -13.3927  -7.4674  -4.5108  -2.8898   0.4483
     1.5679   4.2136   4.8915   5.1569

          k = 0.1667 0.3849 0.0000 (   802 PWs)   bands (ev):

   -30.8064 -27.1293 -24.0722 -11.9896  -6.3954  -4.1753  -1.9581  -0.5867
     1.1469   2.2629   6.4198   6.7471

          k = 0.1667 0.4811 0.0000 (   790 PWs)   bands (ev):

   -30.4969 -27.7091 -24.0558 -10.2182  -5.9145  -4.9652  -2.3425  -0.8774
     0.5610   3.8921   7.9725   8.7637

          k = 0.1667 0.5774 0.0000 (   796 PWs)   bands (ev):

   -30.3638 -28.0199 -24.1336  -8.4564  -7.8307  -4.6408  -1.9660  -1.6645
    -0.1937   5.8534   7.1615  10.9022

          k = 0.2500 0.4330 0.0000 (   799 PWs)   bands (ev):

   -30.4980 -28.0806 -23.8218 -10.4135  -5.5337  -4.0758  -3.5228  -1.4719
     0.2614   3.6050   8.0703   8.5590

          k = 0.2500 0.5292 0.0000 (   796 PWs)   bands (ev):

   -30.0530 -28.6823 -23.6895  -8.5501  -6.2587  -4.3333  -4.0071  -1.6426
    -1.1974   6.1313   8.8033  10.6255

          k = 0.3333 0.5774 0.0000 (   783 PWs)   bands (ev):

   -29.3122 -29.3121 -23.4832  -6.8924  -6.1656  -6.1633  -2.7205  -2.7199
    -1.5203   7.7777   9.6658   9.6827

     the Fermi energy is     0.7350 ev

!    total energy              =     -33.54106147 Ry
     estimated scf accuracy    <          8.0E-10 Ry
     smearing contrib. (-TS)   =       0.00061065 Ry
     internal energy E=F+TS    =     -33.54167212 Ry

     The total energy is F=E-TS. E is the sum of the following terms:
     one-electron contribution =    -613.01070602 Ry
     hartree contribution      =     309.49112458 Ry
     xc contribution           =     -19.34368063 Ry
     ewald contribution        =     289.32158995 Ry

     convergence has been achieved in  12 iterations

     negative rho (up, down):  8.002E-02 0.000E+00

     Forces acting on atoms (cartesian axes, Ry/au):

     atom    1 type  1   force =     0.00000000   -0.00000000  -28.20357589
     atom    2 type  1   force =     0.00000000    0.00000000   -0.59685085
     atom    3 type  1   force =     0.00000000    0.00000000    0.59423072
     atom    4 type  1   force =     0.00000000   -0.00000000   28.20619601

     Total force =    39.896623     Total SCF correction =     0.000054


     Computing stress (Cartesian axis) and pressure


     negative rho (up, down):  8.002E-02 0.000E+00
          total   stress  (Ry/bohr**3)                   (kbar)     P=     1712.71
  -0.00200878   0.00000000   0.00000000         -295.50        0.00        0.00
   0.00000000  -0.00200878   0.00000000            0.00     -295.50        0.00
   0.00000000   0.00000000   0.03894587            0.00        0.00     5729.14


     Writing all to output data dir /home/rfa/Skripsi/DFT/dft-graphene/tmp/gr-ab-2L.save/ :
     XML data file, charge density, pseudopotentials, collected wavefunctions

     init_run     :      0.15s CPU      0.19s WALL (       1 calls)
     electrons    :      4.47s CPU      2.65s WALL (       1 calls)
     forces       :      0.01s CPU      0.01s WALL (       1 calls)
     stress       :      0.05s CPU      0.05s WALL (       1 calls)

     Called by init_run:
     wfcinit      :      0.07s CPU      0.05s WALL (       1 calls)
     potinit      :      0.00s CPU      0.00s WALL (       1 calls)
     hinit0       :      0.05s CPU      0.10s WALL (       1 calls)

     Called by electrons:
     c_bands      :      4.04s CPU      2.31s WALL (      12 calls)
     sum_band     :      0.37s CPU      0.25s WALL (      12 calls)
     v_of_rho     :      0.03s CPU      0.03s WALL (      13 calls)
     newd         :      0.02s CPU      0.03s WALL (      13 calls)
     mix_rho      :      0.01s CPU      0.01s WALL (      12 calls)

     Called by c_bands:
     init_us_2    :      0.06s CPU      0.04s WALL (     513 calls)
     cegterg      :      3.84s CPU      2.16s WALL (     228 calls)

     Called by *egterg:
     cdiaghg      :      0.96s CPU      0.52s WALL (    1272 calls)
     h_psi        :      2.38s CPU      1.37s WALL (    1291 calls)
     s_psi        :      0.07s CPU      0.04s WALL (    1291 calls)
     g_psi        :      0.02s CPU      0.01s WALL (    1044 calls)

     Called by h_psi:
     h_psi:calbec :      0.19s CPU      0.11s WALL (    1291 calls)
     vloc_psi     :      2.07s CPU      1.17s WALL (    1291 calls)
     add_vuspsi   :      0.08s CPU      0.04s WALL (    1291 calls)

     General routines
     calbec       :      0.23s CPU      0.15s WALL (    1842 calls)
     fft          :      0.05s CPU      0.10s WALL (     168 calls)
     ffts         :      0.00s CPU      0.00s WALL (      12 calls)
     fftw         :      2.02s CPU      1.14s WALL (   19312 calls)

     Parallel routines

     PWSCF        :      4.82s CPU      3.17s WALL


   This run was terminated on:  14:54:55  16Apr2025            

=------------------------------------------------------------------------------=
   JOB DONE.
=------------------------------------------------------------------------------=
