
     Program PWSCF v.7.4.1 starts on 18Mar2025 at 14:29:25 

     This program is part of the open-source Quantum ESPRESSO suite
     for quantum simulation of materials; please cite
         "P. Giannozzi et al., J. Phys.:Condens. Matter 21 395502 (2009);
         "P. Giannozzi et al., J. Phys.:Condens. Matter 29 465901 (2017);
         "P. Giannozzi et al., J. Chem. Phys. 152 154105 (2020);
          URL http://www.quantum-espresso.org", 
     in publications or presentations arising from this work. More details at
     http://www.quantum-espresso.org/quote

     Parallel version (MPI), running on     7 processors

     MPI processes distributed on     1 nodes
     4600 MiB available memory on the printing compute node when the environment starts

     Waiting for input...
     Reading input from standard input

     Current dimensions of program PWSCF are:
     Max number of different atomic species (ntypx) = 10
     Max number of k-points (npk) =  40000
     Max angular momentum in pseudopotentials (lmaxx) =  4

     R & G space division:  proc/nbgrp/npool/nimage =       7
     Subspace diagonalization in iterative solution of the eigenvalue problem:
     a serial algorithm will be used


     Parallelization info
     --------------------
     sticks:   dense  smooth     PW     G-vecs:    dense   smooth      PW
     Min          51      51     15                 4783     4783     805
     Max          52      52     16                 4800     4800     826
     Sum         361     361    109                33523    33523    5717

     Using Slab Decomposition



     bravais-lattice index     =            4
     lattice parameter (alat)  =       4.6561  a.u.
     unit-cell volume          =     532.1899 (a.u.)^3
     number of atoms/cell      =            4
     number of atomic types    =            1
     number of electrons       =        16.00
     number of Kohn-Sham states=           12
     kinetic-energy cutoff     =      60.0000  Ry
     charge density cutoff     =     240.0000  Ry
     scf convergence threshold =      1.0E-08
     mixing beta               =       0.7000
     number of iterations used =            8  plain     mixing
     Exchange-correlation= PBE
                           (   1   4   3   4   0   0   0)

     celldm(1)=   4.656107  celldm(2)=   0.000000  celldm(3)=   6.087896
     celldm(4)=   0.000000  celldm(5)=   0.000000  celldm(6)=   0.000000

     crystal axes: (cart. coord. in units of alat)
               a(1) = (   1.000000   0.000000   0.000000 )  
               a(2) = (  -0.500000   0.866025   0.000000 )  
               a(3) = (   0.000000   0.000000   6.087896 )  

     reciprocal axes: (cart. coord. in units 2 pi/alat)
               b(1) = (  1.000000  0.577350 -0.000000 )  
               b(2) = (  0.000000  1.154701  0.000000 )  
               b(3) = (  0.000000 -0.000000  0.164260 )  


     PseudoPot. # 1 for C  read from file:
     /run/media/rfa/SATA/Skripsi/DFT/Graphene-copy/pseudo/C.pbe-n-rrkjus_psl.0.1.UPF
     MD5 check sum: 96a6a315177d77e6c95bf6fd3870f9e3
     Pseudo is Ultrasoft + core correction, Zval =  4.0
     Generated using &quot;atomic&quot; code by A. Dal Corso  v.6.3MaX
     Using radial grid of 1073 points,  4 beta functions with: 
                l(1) =   0
                l(2) =   0
                l(3) =   1
                l(4) =   1
     Q(r) pseudized with 0 coefficients 


     atomic species   valence    mass     pseudopotential
     C                 4.00    12.01070     C ( 1.00)

      6 Sym. Ops. (no inversion) found



   Cartesian axes

     site n.     atom                  positions (alat units)
         1        C      tau(   1) = (   0.0000000   0.5773503   3.0439478  )
         2        C      tau(   2) = (   0.5000000   0.2886751   3.0439478  )
         3        C      tau(   3) = (   0.0000000   0.0000000   3.2468777  )
         4        C      tau(   4) = (   0.0000000   0.5773503   3.2468777  )

     number of k points=    30  Marzari-Vanderbilt smearing, width (Ry)=  0.0200
                       cart. coord. in units 2pi/alat
        k(    1) = (   0.0000000   0.0000000   0.0000000), wk =   0.0078125
        k(    2) = (   0.0000000   0.0721688   0.0000000), wk =   0.0468750
        k(    3) = (   0.0000000   0.1443376   0.0000000), wk =   0.0468750
        k(    4) = (   0.0000000   0.2165064   0.0000000), wk =   0.0468750
        k(    5) = (   0.0000000   0.2886751   0.0000000), wk =   0.0468750
        k(    6) = (   0.0000000   0.3608439   0.0000000), wk =   0.0468750
        k(    7) = (   0.0000000   0.4330127   0.0000000), wk =   0.0468750
        k(    8) = (   0.0000000   0.5051815   0.0000000), wk =   0.0468750
        k(    9) = (   0.0000000  -0.5773503   0.0000000), wk =   0.0234375
        k(   10) = (   0.0625000   0.1082532   0.0000000), wk =   0.0468750
        k(   11) = (   0.0625000   0.1804220   0.0000000), wk =   0.0937500
        k(   12) = (   0.0625000   0.2525907   0.0000000), wk =   0.0937500
        k(   13) = (   0.0625000   0.3247595   0.0000000), wk =   0.0937500
        k(   14) = (   0.0625000   0.3969283   0.0000000), wk =   0.0937500
        k(   15) = (   0.0625000   0.4690971   0.0000000), wk =   0.0937500
        k(   16) = (   0.0625000   0.5412659   0.0000000), wk =   0.0937500
        k(   17) = (   0.1250000   0.2165064   0.0000000), wk =   0.0468750
        k(   18) = (   0.1250000   0.2886751   0.0000000), wk =   0.0937500
        k(   19) = (   0.1250000   0.3608439   0.0000000), wk =   0.0937500
        k(   20) = (   0.1250000   0.4330127   0.0000000), wk =   0.0937500
        k(   21) = (   0.1250000   0.5051815   0.0000000), wk =   0.0937500
        k(   22) = (   0.1250000   0.5773503   0.0000000), wk =   0.0468750
        k(   23) = (   0.1875000   0.3247595   0.0000000), wk =   0.0468750
        k(   24) = (   0.1875000   0.3969283   0.0000000), wk =   0.0937500
        k(   25) = (   0.1875000   0.4690971   0.0000000), wk =   0.0937500
        k(   26) = (   0.1875000   0.5412659   0.0000000), wk =   0.0937500
        k(   27) = (   0.2500000   0.4330127   0.0000000), wk =   0.0468750
        k(   28) = (   0.2500000   0.5051815   0.0000000), wk =   0.0937500
        k(   29) = (   0.2500000   0.5773503   0.0000000), wk =   0.0468750
        k(   30) = (   0.3125000   0.5412659   0.0000000), wk =   0.0468750

     Dense  grid:    33523 G-vectors     FFT dimensions: (  24,  24, 144)

     Estimated max dynamical RAM per process >      10.76 MB

     Estimated total dynamical RAM >      75.30 MB

     Check: negative core charge=   -0.000004

     Initial potential from superposition of free atoms

     starting charge      15.9998, renormalised to      16.0000

     negative rho (up, down):  1.215E-04 0.000E+00
     Starting wfcs are   16 randomized atomic wfcs

     total cpu time spent up to now is        0.9 secs

     per-process dynamical memory:    13.3 Mb

     Self-consistent Calculation

     iteration #  1     ecut=    60.00 Ry     beta= 0.70
     Davidson diagonalization with overlap
     ethr =  1.00E-02,  avg # of iterations =  7.8

     negative rho (up, down):  8.492E-04 0.000E+00

     total cpu time spent up to now is        2.0 secs

     total energy              =     -32.69352079 Ry
     estimated scf accuracy    <       6.66432853 Ry

     iteration #  2     ecut=    60.00 Ry     beta= 0.70
     Davidson diagonalization with overlap
     ethr =  1.00E-02,  avg # of iterations =  5.3

     negative rho (up, down):  1.088E-04 0.000E+00

     total cpu time spent up to now is        2.8 secs

     total energy              =     -34.59333232 Ry
     estimated scf accuracy    <       4.41243877 Ry

     iteration #  3     ecut=    60.00 Ry     beta= 0.70
     Davidson diagonalization with overlap
     ethr =  1.00E-02,  avg # of iterations =  2.7

     negative rho (up, down):  2.593E-04 0.000E+00

     total cpu time spent up to now is        3.3 secs

     total energy              =     -35.27641668 Ry
     estimated scf accuracy    <       0.09238730 Ry

     iteration #  4     ecut=    60.00 Ry     beta= 0.70
     Davidson diagonalization with overlap
     ethr =  5.77E-04,  avg # of iterations = 13.2

     negative rho (up, down):  3.716E-04 0.000E+00

     total cpu time spent up to now is        4.7 secs

     total energy              =     -35.49589383 Ry
     estimated scf accuracy    <       0.09865915 Ry

     iteration #  5     ecut=    60.00 Ry     beta= 0.70
     Davidson diagonalization with overlap
     ethr =  5.77E-04,  avg # of iterations =  2.9

     negative rho (up, down):  5.618E-04 0.000E+00

     total cpu time spent up to now is        5.2 secs

     total energy              =     -35.49640212 Ry
     estimated scf accuracy    <       0.01913099 Ry

     iteration #  6     ecut=    60.00 Ry     beta= 0.70
     Davidson diagonalization with overlap
     c_bands:  2 eigenvalues not converged
     c_bands:  3 eigenvalues not converged
     c_bands:  1 eigenvalues not converged
     c_bands:  2 eigenvalues not converged
     c_bands:  1 eigenvalues not converged
     c_bands:  1 eigenvalues not converged
     ethr =  1.20E-04,  avg # of iterations = 12.3

     negative rho (up, down):  8.511E-04 0.000E+00

     total cpu time spent up to now is        6.2 secs

     total energy              =     -35.50665160 Ry
     estimated scf accuracy    <       0.00208398 Ry

     iteration #  7     ecut=    60.00 Ry     beta= 0.70
     Davidson diagonalization with overlap
     c_bands:  1 eigenvalues not converged
     c_bands:  3 eigenvalues not converged
     c_bands:  2 eigenvalues not converged
     c_bands:  1 eigenvalues not converged
     c_bands:  2 eigenvalues not converged
     c_bands:  1 eigenvalues not converged
     c_bands:  1 eigenvalues not converged
     c_bands:  1 eigenvalues not converged
     ethr =  1.30E-05,  avg # of iterations = 17.3

     negative rho (up, down):  7.923E-04 0.000E+00

     total cpu time spent up to now is        7.8 secs

     total energy              =     -35.50848552 Ry
     estimated scf accuracy    <       0.00796419 Ry

     iteration #  8     ecut=    60.00 Ry     beta= 0.70
     Davidson diagonalization with overlap
     c_bands:  1 eigenvalues not converged
     ethr =  1.30E-05,  avg # of iterations =  4.0

     negative rho (up, down):  8.702E-04 0.000E+00

     total cpu time spent up to now is        8.3 secs

     total energy              =     -35.50800852 Ry
     estimated scf accuracy    <       0.00262424 Ry

     iteration #  9     ecut=    60.00 Ry     beta= 0.70
     Davidson diagonalization with overlap
     ethr =  1.30E-05,  avg # of iterations =  2.6

     negative rho (up, down):  8.730E-04 0.000E+00

     total cpu time spent up to now is        8.8 secs

     total energy              =     -35.50815657 Ry
     estimated scf accuracy    <       0.00039255 Ry

     iteration # 10     ecut=    60.00 Ry     beta= 0.70
     Davidson diagonalization with overlap
     c_bands:  1 eigenvalues not converged
     c_bands:  1 eigenvalues not converged
     c_bands:  1 eigenvalues not converged
     ethr =  2.45E-06,  avg # of iterations = 11.2

     negative rho (up, down):  8.603E-04 0.000E+00

     total cpu time spent up to now is        9.8 secs

     total energy              =     -35.50852061 Ry
     estimated scf accuracy    <       0.00005260 Ry

     iteration # 11     ecut=    60.00 Ry     beta= 0.70
     Davidson diagonalization with overlap
     ethr =  3.29E-07,  avg # of iterations =  5.7

     negative rho (up, down):  8.504E-04 0.000E+00

     total cpu time spent up to now is       10.6 secs

     total energy              =     -35.50853676 Ry
     estimated scf accuracy    <       0.00007739 Ry

     iteration # 12     ecut=    60.00 Ry     beta= 0.70
     Davidson diagonalization with overlap
     c_bands:  1 eigenvalues not converged
     ethr =  3.29E-07,  avg # of iterations =  3.3

     negative rho (up, down):  8.441E-04 0.000E+00

     total cpu time spent up to now is       11.1 secs

     total energy              =     -35.50855583 Ry
     estimated scf accuracy    <       0.00000079 Ry

     iteration # 13     ecut=    60.00 Ry     beta= 0.70
     Davidson diagonalization with overlap
     c_bands:  2 eigenvalues not converged
     c_bands:  1 eigenvalues not converged
     ethr =  4.94E-09,  avg # of iterations = 16.7

     negative rho (up, down):  8.502E-04 0.000E+00

     total cpu time spent up to now is       13.0 secs

     total energy              =     -35.50855821 Ry
     estimated scf accuracy    <       0.00002634 Ry

     iteration # 14     ecut=    60.00 Ry     beta= 0.70
     Davidson diagonalization with overlap
     ethr =  4.94E-09,  avg # of iterations =  8.0

     negative rho (up, down):  8.519E-04 0.000E+00

     total cpu time spent up to now is       14.0 secs

     total energy              =     -35.50856269 Ry
     estimated scf accuracy    <       0.00000007 Ry

     iteration # 15     ecut=    60.00 Ry     beta= 0.70
     Davidson diagonalization with overlap
     ethr =  4.21E-10,  avg # of iterations = 12.4

     negative rho (up, down):  8.496E-04 0.000E+00

     total cpu time spent up to now is       15.5 secs

     total energy              =     -35.50856249 Ry
     estimated scf accuracy    <       0.00000142 Ry

     iteration # 16     ecut=    60.00 Ry     beta= 0.70
     Davidson diagonalization with overlap
     ethr =  4.21E-10,  avg # of iterations =  7.0

     negative rho (up, down):  8.499E-04 0.000E+00

     total cpu time spent up to now is       16.4 secs

     total energy              =     -35.50856280 Ry
     estimated scf accuracy    <       0.00000001 Ry

     iteration # 17     ecut=    60.00 Ry     beta= 0.70
     Davidson diagonalization with overlap
     ethr =  7.48E-11,  avg # of iterations =  4.4

     negative rho (up, down):  8.497E-04 0.000E+00

     total cpu time spent up to now is       17.0 secs

     End of self-consistent calculation

          k = 0.0000 0.0000 0.0000 (  4149 PWs)   bands (ev):

   -29.6449 -21.9311 -21.9311 -16.6708  -9.3618  -9.3618  -4.8999   3.5585
     3.8768   4.1631   4.9403   5.8176

          k = 0.0000 0.0722 0.0000 (  4170 PWs)   bands (ev):

   -29.6366 -22.0918 -22.0122 -16.5702  -9.2180  -9.0099  -4.8258   3.4148
     3.9977   4.0680   5.0104   5.9716

          k = 0.0000 0.1443 0.0000 (  4192 PWs)   bands (ev):

   -29.6125 -22.5156 -22.2385 -16.2647  -8.8004  -8.0182  -4.6105   2.4190
     4.3253   4.3505   5.0177   5.8480

          k = 0.0000 0.2165 0.0000 (  4184 PWs)   bands (ev):

   -29.5750 -23.0756 -22.5654 -15.7496  -8.1440  -6.5297  -4.2825   0.7696
     4.3040   4.9673   5.0943   6.2397

          k = 0.0000 0.2887 0.0000 (  4186 PWs)   bands (ev):

   -29.5288 -23.6532 -22.9350 -15.0308  -7.2917  -4.6957  -3.9491  -1.0279
     3.5625   5.8469   5.9292   6.4463

          k = 0.0000 0.3608 0.0000 (  4188 PWs)   bands (ev):

   -29.4801 -24.1649 -23.2887 -14.1250  -6.3075  -4.1939  -2.6545  -2.1349
     2.7666   4.6305   6.9562   7.0957

          k = 0.0000 0.4330 0.0000 (  4186 PWs)   bands (ev):

   -29.4364 -24.5589 -23.5778 -13.0794  -5.8976  -4.9009  -1.9006  -0.5475
     2.0072   2.8133   6.0593   8.2558

          k = 0.0000 0.5052 0.0000 (  4184 PWs)   bands (ev):

   -29.4060 -24.8055 -23.7661 -12.0312  -7.2046  -4.0112  -1.2486   1.1638
     1.3828   1.4464   4.9268   9.7002

          k = 0.0000-0.5774 0.0000 (  4184 PWs)   bands (ev):

   -29.3951 -24.8893 -23.8314 -11.4774  -7.8973  -3.5255  -0.6357   0.1417
     1.1102   2.7593   3.9505  10.8611

          k = 0.0625 0.1083 0.0000 (  4175 PWs)   bands (ev):

   -29.6202 -22.4059 -22.1420 -16.3668  -8.9476  -8.3295  -4.6808   2.7905
     4.2230   4.2323   5.0381   5.8276

          k = 0.0625 0.1804 0.0000 (  4175 PWs)   bands (ev):

   -29.5882 -22.9473 -22.3605 -15.9564  -8.4356  -7.0739  -4.4050   1.4681
     4.3685   4.7147   4.8570   6.0029

          k = 0.0625 0.2526 0.0000 (  4178 PWs)   bands (ev):

   -29.5428 -23.5777 -22.6333 -15.3388  -7.7103  -5.4046  -4.0441  -0.2423
     3.5469   5.4748   5.5311   6.5898

          k = 0.0625 0.3248 0.0000 (  4173 PWs)   bands (ev):

   -29.4879 -24.1893 -22.9142 -14.5247  -6.8107  -3.9138  -3.3980  -1.8313
     2.6760   5.3071   6.4615   6.5286

          k = 0.0625 0.3969 0.0000 (  4185 PWs)   bands (ev):

   -29.4305 -24.7086 -23.1615 -13.5425  -5.8525  -4.7162  -2.1831  -1.3741
     1.8939   3.5326   7.0811   7.7293

          k = 0.0625 0.4691 0.0000 (  4185 PWs)   bands (ev):

   -29.3808 -25.0842 -23.3433 -12.4699  -6.4739  -4.5435  -1.6584   0.4099
     1.4315   1.8490   6.0844   9.0759

          k = 0.0625 0.5413 0.0000 (  4197 PWs)   bands (ev):

   -29.3519 -25.2818 -23.4391 -11.5708  -7.6290  -3.7301  -0.9230   0.2297
     0.5860   2.7059   4.9275  10.5157

          k = 0.1250 0.2165 0.0000 (  4163 PWs)   bands (ev):

   -29.5454 -23.5982 -22.4714 -15.4426  -7.8901  -5.6196  -4.0810   0.1360
     3.3422   5.3543   5.3849   6.4544

          k = 0.1250 0.2887 0.0000 (  4166 PWs)   bands (ev):

   -29.4824 -24.3076 -22.5884 -14.7285  -7.1644  -3.9931  -3.5546  -1.4208
     2.2189   5.6070   6.2375   6.2597

          k = 0.1250 0.3608 0.0000 (  4180 PWs)   bands (ev):

   -29.4010 -24.9716 -22.7004 -13.8316  -6.2824  -3.9865  -2.5025  -1.7933
     1.3586   3.9687   7.2406   7.4004

          k = 0.1250 0.4330 0.0000 (  4177 PWs)   bands (ev):

   -29.3114 -25.5153 -22.7923 -12.7976  -5.6494  -5.0210  -2.2585  -0.3443
     1.2223   2.3130   7.6644   8.7685

          k = 0.1250 0.5052 0.0000 (  4183 PWs)   bands (ev):

   -29.2366 -25.8768 -22.8520 -11.7666  -6.9178  -4.1977  -1.7198  -0.4286
     0.6886   2.8361   6.6466  10.1015

          k = 0.1250 0.5774 0.0000 (  4190 PWs)   bands (ev):

   -29.2065 -26.0046 -22.8726 -11.2267  -7.5956  -3.7105  -1.3200  -0.6065
    -0.1398   3.9872   5.7510  11.2230

          k = 0.1875 0.3248 0.0000 (  4170 PWs)   bands (ev):

   -29.3857 -25.0749 -22.5224 -13.9301  -6.4761  -3.5168  -2.7683  -1.9161
     1.0935   4.1182   7.1450   7.2713

          k = 0.1875 0.3969 0.0000 (  4168 PWs)   bands (ev):

   -29.2521 -25.7774 -22.4616 -12.9716  -5.6549  -4.3682  -3.1325  -0.7156
     1.1081   2.5540   8.1635   8.5408

          k = 0.1875 0.4691 0.0000 (  4167 PWs)   bands (ev):

   -29.1010 -26.3363 -22.4171 -11.9340  -5.9504  -4.6273  -2.9460  -0.7565
     0.8606   2.9918   8.3855   9.9553

          k = 0.1875 0.5413 0.0000 (  4180 PWs)   bands (ev):

   -28.9888 -26.6606 -22.3938 -11.0821  -7.0424  -3.8339  -2.8626  -0.7998
    -0.3067   4.7865   7.2355  11.1803

          k = 0.2500 0.4330 0.0000 (  4156 PWs)   bands (ev):

   -29.0366 -26.5129 -22.2578 -11.9973  -5.2563  -4.7531  -3.8002  -0.8396
     0.9197   3.0548   9.1381   9.9230

          k = 0.2500 0.5052 0.0000 (  4159 PWs)   bands (ev):

   -28.7864 -27.0934 -22.1229 -11.0586  -6.1835  -4.2051  -3.9491  -1.0483
    -0.2273   5.1089   9.0508  10.7433

          k = 0.2500 0.5774 0.0000 (  4160 PWs)   bands (ev):

   -28.6461 -27.3466 -22.0759 -10.5950  -6.7012  -4.3258  -3.4063  -1.4553
    -0.5240   6.6167   7.8858  11.4381

          k = 0.3125 0.5413 0.0000 (  4162 PWs)   bands (ev):

   -28.3769 -27.7334 -21.9622 -10.4290  -6.1292  -5.2941  -3.1087  -1.9276
    -0.4985   7.2270   9.3307   9.6061

     the Fermi energy is     0.5019 ev

!    total energy              =     -35.50856281 Ry
     estimated scf accuracy    <          9.9E-10 Ry
     smearing contrib. (-TS)   =      -0.00017726 Ry
     internal energy E=F+TS    =     -35.50838555 Ry

     The total energy is F=E-TS. E is the sum of the following terms:
     one-electron contribution =    -617.21516473 Ry
     hartree contribution      =     312.04436227 Ry
     xc contribution           =     -19.65917303 Ry
     ewald contribution        =     289.32158995 Ry

     convergence has been achieved in  17 iterations

     negative rho (up, down):  8.497E-04 0.000E+00

     Forces acting on atoms (cartesian axes, Ry/au):

     atom    1 type  1   force =     0.00000000    0.00000000  -24.01995480
     atom    2 type  1   force =     0.00000000    0.00000000   -0.42550231
     atom    3 type  1   force =     0.00000000    0.00000000    0.42547338
     atom    4 type  1   force =     0.00000000    0.00000000   24.01998374

     Total force =    33.974695     Total SCF correction =     0.000041


     Computing stress (Cartesian axis) and pressure


     negative rho (up, down):  8.497E-04 0.000E+00
          total   stress  (Ry/bohr**3)                   (kbar)     P=     2875.98
   0.00769763   0.00000000  -0.00000000         1132.36        0.00       -0.00
   0.00000000   0.00769763  -0.00000000            0.00     1132.36       -0.00
  -0.00000000  -0.00000000   0.04325621           -0.00       -0.00     6363.21


     Writing all to output data dir /run/media/rfa/SATA/Skripsi/DFT/Graphene-copy/tmp/gr-ab-2L.save/ :
     XML data file, charge density, pseudopotentials, collected wavefunctions

     init_run     :      0.72s CPU      0.86s WALL (       1 calls)
     electrons    :     28.97s CPU     16.07s WALL (       1 calls)
     forces       :      0.07s CPU      0.04s WALL (       1 calls)
     stress       :      0.27s CPU      0.16s WALL (       1 calls)

     Called by init_run:
     wfcinit      :      0.36s CPU      0.20s WALL (       1 calls)
     potinit      :      0.01s CPU      0.01s WALL (       1 calls)
     hinit0       :      0.33s CPU      0.63s WALL (       1 calls)

     Called by electrons:
     c_bands      :     26.39s CPU     14.57s WALL (      17 calls)
     sum_band     :      2.26s CPU      1.25s WALL (      17 calls)
     v_of_rho     :      0.11s CPU      0.11s WALL (      18 calls)
     newd         :      0.11s CPU      0.10s WALL (      18 calls)
     mix_rho      :      0.09s CPU      0.05s WALL (      17 calls)

     Called by c_bands:
     init_us_2    :      0.36s CPU      0.20s WALL (    1110 calls)
     cegterg      :     25.82s CPU     14.26s WALL (     510 calls)

     Called by *egterg:
     cdiaghg      :      1.74s CPU      0.96s WALL (    4610 calls)
     h_psi        :     19.30s CPU     10.77s WALL (    4640 calls)
     s_psi        :      0.57s CPU      0.31s WALL (    4640 calls)
     g_psi        :      0.21s CPU      0.10s WALL (    4100 calls)

     Called by h_psi:
     h_psi:calbec :      2.03s CPU      1.11s WALL (    4640 calls)
     vloc_psi     :     16.20s CPU      9.06s WALL (    4640 calls)
     add_vuspsi   :      0.83s CPU      0.46s WALL (    4640 calls)

     General routines
     calbec       :      2.29s CPU      1.25s WALL (    5660 calls)
     fft          :      0.37s CPU      0.66s WALL (     223 calls)
     ffts         :      0.01s CPU      0.00s WALL (      17 calls)
     fftw         :     14.97s CPU      8.43s WALL (   65512 calls)

     Parallel routines

     PWSCF        :     30.09s CPU     17.24s WALL


   This run was terminated on:  14:29:42  18Mar2025            

=------------------------------------------------------------------------------=
   JOB DONE.
=------------------------------------------------------------------------------=
