
     Program PWSCF v.7.4.1 starts on 18Mar2025 at 14:29:14 

     This program is part of the open-source Quantum ESPRESSO suite
     for quantum simulation of materials; please cite
         "P. Giannozzi et al., J. Phys.:Condens. Matter 21 395502 (2009);
         "P. Giannozzi et al., J. Phys.:Condens. Matter 29 465901 (2017);
         "P. Giannozzi et al., J. Chem. Phys. 152 154105 (2020);
          URL http://www.quantum-espresso.org", 
     in publications or presentations arising from this work. More details at
     http://www.quantum-espresso.org/quote

     Parallel version (MPI), running on     7 processors

     MPI processes distributed on     1 nodes
     4615 MiB available memory on the printing compute node when the environment starts

     Waiting for input...
     Reading input from standard input

     Current dimensions of program PWSCF are:
     Max number of different atomic species (ntypx) = 10
     Max number of k-points (npk) =  40000
     Max angular momentum in pseudopotentials (lmaxx) =  4

     R & G space division:  proc/nbgrp/npool/nimage =       7
     Subspace diagonalization in iterative solution of the eigenvalue problem:
     a serial algorithm will be used


     Parallelization info
     --------------------
     sticks:   dense  smooth     PW     G-vecs:    dense   smooth      PW
     Min          51      51     15                 4783     4783     815
     Max          52      52     16                 4800     4800     838
     Sum         361     361    109                33523    33523    5791

     Using Slab Decomposition



     bravais-lattice index     =            4
     lattice parameter (alat)  =       4.6561  a.u.
     unit-cell volume          =     532.1899 (a.u.)^3
     number of atoms/cell      =            4
     number of atomic types    =            1
     number of electrons       =        16.00
     number of Kohn-Sham states=           12
     kinetic-energy cutoff     =      60.0000  Ry
     charge density cutoff     =     240.0000  Ry
     scf convergence threshold =      1.0E-08
     mixing beta               =       0.7000
     number of iterations used =            8  plain     mixing
     Exchange-correlation= PBE
                           (   1   4   3   4   0   0   0)

     celldm(1)=   4.656107  celldm(2)=   0.000000  celldm(3)=   6.087896
     celldm(4)=   0.000000  celldm(5)=   0.000000  celldm(6)=   0.000000

     crystal axes: (cart. coord. in units of alat)
               a(1) = (   1.000000   0.000000   0.000000 )  
               a(2) = (  -0.500000   0.866025   0.000000 )  
               a(3) = (   0.000000   0.000000   6.087896 )  

     reciprocal axes: (cart. coord. in units 2 pi/alat)
               b(1) = (  1.000000  0.577350 -0.000000 )  
               b(2) = (  0.000000  1.154701  0.000000 )  
               b(3) = (  0.000000 -0.000000  0.164260 )  


     PseudoPot. # 1 for C  read from file:
     /run/media/rfa/SATA/Skripsi/DFT/Graphene-copy/pseudo/C.pbe-n-rrkjus_psl.0.1.UPF
     MD5 check sum: 96a6a315177d77e6c95bf6fd3870f9e3
     Pseudo is Ultrasoft + core correction, Zval =  4.0
     Generated using &quot;atomic&quot; code by A. Dal Corso  v.6.3MaX
     Using radial grid of 1073 points,  4 beta functions with: 
                l(1) =   0
                l(2) =   0
                l(3) =   1
                l(4) =   1
     Q(r) pseudized with 0 coefficients 


     atomic species   valence    mass     pseudopotential
     C                 4.00    12.01070     C ( 1.00)

      6 Sym. Ops. (no inversion) found



   Cartesian axes

     site n.     atom                  positions (alat units)
         1        C      tau(   1) = (   0.0000000   0.5773503   3.0439478  )
         2        C      tau(   2) = (   0.5000000   0.2886751   3.0439478  )
         3        C      tau(   3) = (   0.0000000   0.0000000   3.2468777  )
         4        C      tau(   4) = (   0.0000000   0.5773503   3.2468777  )

     number of k points=    19  Marzari-Vanderbilt smearing, width (Ry)=  0.0200
                       cart. coord. in units 2pi/alat
        k(    1) = (   0.0000000   0.0000000   0.0000000), wk =   0.0138889
        k(    2) = (   0.0000000   0.0962250   0.0000000), wk =   0.0833333
        k(    3) = (   0.0000000   0.1924501   0.0000000), wk =   0.0833333
        k(    4) = (   0.0000000   0.2886751   0.0000000), wk =   0.0833333
        k(    5) = (   0.0000000   0.3849002   0.0000000), wk =   0.0833333
        k(    6) = (   0.0000000   0.4811252   0.0000000), wk =   0.0833333
        k(    7) = (   0.0000000  -0.5773503   0.0000000), wk =   0.0416667
        k(    8) = (   0.0833333   0.1443376   0.0000000), wk =   0.0833333
        k(    9) = (   0.0833333   0.2405626   0.0000000), wk =   0.1666667
        k(   10) = (   0.0833333   0.3367877   0.0000000), wk =   0.1666667
        k(   11) = (   0.0833333   0.4330127   0.0000000), wk =   0.1666667
        k(   12) = (   0.0833333   0.5292377   0.0000000), wk =   0.1666667
        k(   13) = (   0.1666667   0.2886751   0.0000000), wk =   0.0833333
        k(   14) = (   0.1666667   0.3849002   0.0000000), wk =   0.1666667
        k(   15) = (   0.1666667   0.4811252   0.0000000), wk =   0.1666667
        k(   16) = (   0.1666667   0.5773503   0.0000000), wk =   0.0833333
        k(   17) = (   0.2500000   0.4330127   0.0000000), wk =   0.0833333
        k(   18) = (   0.2500000   0.5292377   0.0000000), wk =   0.1666667
        k(   19) = (   0.3333333   0.5773503   0.0000000), wk =   0.0277778

     Dense  grid:    33523 G-vectors     FFT dimensions: (  24,  24, 144)

     Estimated max dynamical RAM per process >       9.56 MB

     Estimated total dynamical RAM >      66.89 MB

     Check: negative core charge=   -0.000004

     Initial potential from superposition of free atoms

     starting charge      15.9998, renormalised to      16.0000

     negative rho (up, down):  1.215E-04 0.000E+00
     Starting wfcs are   16 randomized atomic wfcs

     total cpu time spent up to now is        0.8 secs

     per-process dynamical memory:    12.1 Mb

     Self-consistent Calculation

     iteration #  1     ecut=    60.00 Ry     beta= 0.70
     Davidson diagonalization with overlap
     ethr =  1.00E-02,  avg # of iterations =  7.7

     negative rho (up, down):  8.321E-04 0.000E+00

     total cpu time spent up to now is        1.5 secs

     total energy              =     -32.68226609 Ry
     estimated scf accuracy    <       6.67117210 Ry

     iteration #  2     ecut=    60.00 Ry     beta= 0.70
     Davidson diagonalization with overlap
     ethr =  1.00E-02,  avg # of iterations =  5.9

     negative rho (up, down):  4.590E-05 0.000E+00

     total cpu time spent up to now is        2.0 secs

     total energy              =     -34.55766509 Ry
     estimated scf accuracy    <       4.57307999 Ry

     iteration #  3     ecut=    60.00 Ry     beta= 0.70
     Davidson diagonalization with overlap
     ethr =  1.00E-02,  avg # of iterations =  3.2

     negative rho (up, down):  1.612E-04 0.000E+00

     total cpu time spent up to now is        2.3 secs

     total energy              =     -35.25876597 Ry
     estimated scf accuracy    <       0.09621942 Ry

     iteration #  4     ecut=    60.00 Ry     beta= 0.70
     Davidson diagonalization with overlap
     ethr =  6.01E-04,  avg # of iterations = 11.4

     negative rho (up, down):  2.408E-04 0.000E+00

     total cpu time spent up to now is        3.1 secs

     total energy              =     -35.49982021 Ry
     estimated scf accuracy    <       0.10309197 Ry

     iteration #  5     ecut=    60.00 Ry     beta= 0.70
     Davidson diagonalization with overlap
     ethr =  6.01E-04,  avg # of iterations =  2.9

     negative rho (up, down):  3.589E-04 0.000E+00

     total cpu time spent up to now is        3.4 secs

     total energy              =     -35.49665243 Ry
     estimated scf accuracy    <       0.03004420 Ry

     iteration #  6     ecut=    60.00 Ry     beta= 0.70
     Davidson diagonalization with overlap
     c_bands:  1 eigenvalues not converged
     ethr =  1.88E-04,  avg # of iterations =  9.5

     negative rho (up, down):  8.076E-04 0.000E+00

     total cpu time spent up to now is        3.9 secs

     total energy              =     -35.50291507 Ry
     estimated scf accuracy    <       0.00215809 Ry

     iteration #  7     ecut=    60.00 Ry     beta= 0.70
     Davidson diagonalization with overlap
     c_bands:  2 eigenvalues not converged
     c_bands:  3 eigenvalues not converged
     c_bands:  4 eigenvalues not converged
     c_bands:  1 eigenvalues not converged
     c_bands:  1 eigenvalues not converged
     c_bands:  1 eigenvalues not converged
     c_bands:  1 eigenvalues not converged
     c_bands:  2 eigenvalues not converged
     c_bands:  1 eigenvalues not converged
     c_bands:  1 eigenvalues not converged
     c_bands:  1 eigenvalues not converged
     c_bands:  1 eigenvalues not converged
     c_bands:  2 eigenvalues not converged
     c_bands:  1 eigenvalues not converged
     ethr =  1.35E-05,  avg # of iterations = 19.3

     negative rho (up, down):  7.440E-04 0.000E+00

     total cpu time spent up to now is        5.1 secs

     total energy              =     -35.50824948 Ry
     estimated scf accuracy    <       0.00977236 Ry

     iteration #  8     ecut=    60.00 Ry     beta= 0.70
     Davidson diagonalization with overlap
     ethr =  1.35E-05,  avg # of iterations =  6.5

     negative rho (up, down):  8.459E-04 0.000E+00

     total cpu time spent up to now is        5.5 secs

     total energy              =     -35.50743131 Ry
     estimated scf accuracy    <       0.00366091 Ry

     iteration #  9     ecut=    60.00 Ry     beta= 0.70
     Davidson diagonalization with overlap
     ethr =  1.35E-05,  avg # of iterations =  3.3

     negative rho (up, down):  8.845E-04 0.000E+00

     total cpu time spent up to now is        5.8 secs

     total energy              =     -35.50753300 Ry
     estimated scf accuracy    <       0.00061416 Ry

     iteration # 10     ecut=    60.00 Ry     beta= 0.70
     Davidson diagonalization with overlap
     c_bands:  2 eigenvalues not converged
     c_bands:  1 eigenvalues not converged
     c_bands:  1 eigenvalues not converged
     ethr =  3.84E-06,  avg # of iterations =  9.5

     negative rho (up, down):  8.621E-04 0.000E+00

     total cpu time spent up to now is        6.4 secs

     total energy              =     -35.50795102 Ry
     estimated scf accuracy    <       0.00003588 Ry

     iteration # 11     ecut=    60.00 Ry     beta= 0.70
     Davidson diagonalization with overlap
     c_bands:  1 eigenvalues not converged
     ethr =  2.24E-07,  avg # of iterations = 10.0

     negative rho (up, down):  8.522E-04 0.000E+00

     total cpu time spent up to now is        7.1 secs

     total energy              =     -35.50802233 Ry
     estimated scf accuracy    <       0.00011813 Ry

     iteration # 12     ecut=    60.00 Ry     beta= 0.70
     Davidson diagonalization with overlap
     ethr =  2.24E-07,  avg # of iterations =  3.2

     negative rho (up, down):  8.515E-04 0.000E+00

     total cpu time spent up to now is        7.4 secs

     total energy              =     -35.50801711 Ry
     estimated scf accuracy    <       0.00003365 Ry

     iteration # 13     ecut=    60.00 Ry     beta= 0.70
     Davidson diagonalization with overlap
     ethr =  2.10E-07,  avg # of iterations =  2.4

     negative rho (up, down):  8.484E-04 0.000E+00

     total cpu time spent up to now is        7.7 secs

     total energy              =     -35.50801939 Ry
     estimated scf accuracy    <       0.00000454 Ry

     iteration # 14     ecut=    60.00 Ry     beta= 0.70
     Davidson diagonalization with overlap
     ethr =  2.84E-08,  avg # of iterations =  6.4

     negative rho (up, down):  8.484E-04 0.000E+00

     total cpu time spent up to now is        8.2 secs

     total energy              =     -35.50802638 Ry
     estimated scf accuracy    <       0.00000181 Ry

     iteration # 15     ecut=    60.00 Ry     beta= 0.70
     Davidson diagonalization with overlap
     ethr =  1.13E-08,  avg # of iterations =  3.8

     negative rho (up, down):  8.493E-04 0.000E+00

     total cpu time spent up to now is        8.5 secs

     total energy              =     -35.50802587 Ry
     estimated scf accuracy    <       0.00000275 Ry

     iteration # 16     ecut=    60.00 Ry     beta= 0.70
     Davidson diagonalization with overlap
     ethr =  1.13E-08,  avg # of iterations =  1.5

     negative rho (up, down):  8.516E-04 0.000E+00

     total cpu time spent up to now is        8.8 secs

     total energy              =     -35.50802577 Ry
     estimated scf accuracy    <       0.00000051 Ry

     iteration # 17     ecut=    60.00 Ry     beta= 0.70
     Davidson diagonalization with overlap
     ethr =  3.16E-09,  avg # of iterations =  5.4

     negative rho (up, down):  8.506E-04 0.000E+00

     total cpu time spent up to now is        9.2 secs

     total energy              =     -35.50802612 Ry
     estimated scf accuracy    <       0.00000025 Ry

     iteration # 18     ecut=    60.00 Ry     beta= 0.70
     Davidson diagonalization with overlap
     ethr =  1.58E-09,  avg # of iterations =  2.6

     negative rho (up, down):  8.506E-04 0.000E+00

     total cpu time spent up to now is        9.5 secs

     End of self-consistent calculation

          k = 0.0000 0.0000 0.0000 (  4149 PWs)   bands (ev):

   -29.6638 -21.9678 -21.9678 -16.6729  -9.3748  -9.3748  -4.9078   3.5561
     3.8750   4.1548   4.9316   5.8195

          k = 0.0000 0.0962 0.0000 (  4170 PWs)   bands (ev):

   -29.6495 -22.2456 -22.1085 -16.4934  -9.1215  -8.7579  -4.7769   3.1819
     4.0879   4.1017   5.0340   5.9317

          k = 0.0000 0.1925 0.0000 (  4194 PWs)   bands (ev):

   -29.6092 -22.9163 -22.4812 -15.9469  -8.4020  -7.0866  -4.4090   1.3524
     4.4464   4.7299   4.9303   6.0549

          k = 0.0000 0.2887 0.0000 (  4186 PWs)   bands (ev):

   -29.5511 -23.6864 -22.9634 -15.0336  -7.3083  -4.7120  -3.9561  -1.0365
     3.5471   5.8476   5.9299   6.4307

          k = 0.0000 0.3849 0.0000 (  4180 PWs)   bands (ev):

   -29.4887 -24.3434 -23.4191 -13.7916  -6.0025  -4.5526  -2.1705  -1.9688
     2.4946   4.0004   6.7452   7.3697

          k = 0.0000 0.4811 0.0000 (  4172 PWs)   bands (ev):

   -29.4398 -24.7726 -23.7383 -12.3675  -6.7735  -4.3368  -1.5001   0.7918
     1.5564   1.6656   5.3117   9.2095

          k = 0.0000-0.5774 0.0000 (  4184 PWs)   bands (ev):

   -29.4215 -24.9210 -23.8526 -11.4833  -7.8949  -3.5488  -0.6507   0.1232
     1.1043   2.7380   3.9444  10.8629

          k = 0.0833 0.1443 0.0000 (  4169 PWs)   bands (ev):

   -29.6213 -22.7799 -22.2973 -16.1300  -8.6652  -7.5915  -4.5251   2.0093
     4.4292   4.5049   4.8192   5.8640

          k = 0.0833 0.2406 0.0000 (  4180 PWs)   bands (ev):

   -29.5659 -23.6204 -22.5769 -15.3994  -7.8233  -5.5418  -4.0722  -0.0513
     3.4349   5.4082   5.4511   6.5114

          k = 0.0833 0.3368 0.0000 (  4175 PWs)   bands (ev):

   -29.4883 -24.4701 -22.8792 -14.3170  -6.6599  -3.9117  -2.9062  -2.0817
     2.2191   4.8571   6.7045   6.7880

          k = 0.0833 0.4330 0.0000 (  4187 PWs)   bands (ev):

   -29.4043 -25.1415 -23.1258 -12.9577  -5.7863  -5.0039  -2.0356  -0.3215
     1.3493   2.5384   6.9555   8.4783

          k = 0.0833 0.5292 0.0000 (  4195 PWs)   bands (ev):

   -29.3460 -25.5129 -23.2620 -11.6375  -7.4309  -3.8933  -1.1351   0.0343
     0.5247   2.7159   5.4622  10.3615

          k = 0.1667 0.2887 0.0000 (  4170 PWs)   bands (ev):

   -29.4765 -24.6057 -22.5746 -14.4966  -6.9918  -3.7624  -3.1071  -1.8365
     1.7346   5.1337   6.5059   6.5506

          k = 0.1667 0.3849 0.0000 (  4172 PWs)   bands (ev):

   -29.3339 -25.5428 -22.5654 -13.2781  -5.8941  -4.2091  -2.9180  -0.8947
     0.9023   2.9980   7.8412   8.1344

          k = 0.1667 0.4811 0.0000 (  4170 PWs)   bands (ev):

   -29.1693 -26.2369 -22.5601 -11.8917  -6.2857  -4.5283  -2.5278  -0.7052
     0.7943   2.9291   7.8356   9.9526

          k = 0.1667 0.5774 0.0000 (  4178 PWs)   bands (ev):

   -29.0871 -26.5039 -22.5586 -11.0488  -7.3597  -3.7449  -2.3368  -0.5984
    -0.5517   4.7681   6.5042  11.4625

          k = 0.2500 0.4330 0.0000 (  4156 PWs)   bands (ev):

   -29.0624 -26.5418 -22.2821 -12.0020  -5.2571  -4.7750  -3.7989  -0.8628
     0.8993   3.0376   9.1374   9.9263

          k = 0.2500 0.5292 0.0000 (  4161 PWs)   bands (ev):

   -28.7417 -27.2556 -22.1203 -10.8236  -6.4511  -4.2705  -3.7086  -1.2378
    -0.4378   5.7467   8.5932  11.0410

          k = 0.3333 0.5774 0.0000 (  4152 PWs)   bands (ev):

   -28.1022 -28.1022 -21.9563 -10.3170  -5.8051  -5.8050  -2.5631  -2.5631
    -0.5285   8.1236   9.0738   9.0738

     the Fermi energy is     0.4531 ev

!    total energy              =     -35.50802619 Ry
     estimated scf accuracy    <          1.8E-09 Ry
     smearing contrib. (-TS)   =       0.00052156 Ry
     internal energy E=F+TS    =     -35.50854776 Ry

     The total energy is F=E-TS. E is the sum of the following terms:
     one-electron contribution =    -617.19620339 Ry
     hartree contribution      =     312.02440301 Ry
     xc contribution           =     -19.65833733 Ry
     ewald contribution        =     289.32158995 Ry

     convergence has been achieved in  18 iterations

     negative rho (up, down):  8.506E-04 0.000E+00

     Forces acting on atoms (cartesian axes, Ry/au):

     atom    1 type  1   force =     0.00000000   -0.00000000  -24.02788195
     atom    2 type  1   force =     0.00000000   -0.00000000   -0.42731582
     atom    3 type  1   force =     0.00000000   -0.00000000    0.42728197
     atom    4 type  1   force =     0.00000000   -0.00000000   24.02791579

     Total force =    33.985953     Total SCF correction =     0.000086


     Computing stress (Cartesian axis) and pressure


     negative rho (up, down):  8.506E-04 0.000E+00
          total   stress  (Ry/bohr**3)                   (kbar)     P=     2868.27
   0.00761095   0.00000000   0.00000000         1119.61        0.00        0.00
   0.00000000   0.00761095   0.00000000            0.00     1119.61        0.00
   0.00000000   0.00000000   0.04327240            0.00        0.00     6365.59


     Writing all to output data dir /run/media/rfa/SATA/Skripsi/DFT/Graphene-copy/tmp/gr-ab-2L.save/ :
     XML data file, charge density, pseudopotentials, collected wavefunctions

     init_run     :      0.58s CPU      0.78s WALL (       1 calls)
     electrons    :     15.71s CPU      8.70s WALL (       1 calls)
     forces       :      0.06s CPU      0.03s WALL (       1 calls)
     stress       :      0.18s CPU      0.11s WALL (       1 calls)

     Called by init_run:
     wfcinit      :      0.22s CPU      0.12s WALL (       1 calls)
     potinit      :      0.01s CPU      0.01s WALL (       1 calls)
     hinit0       :      0.33s CPU      0.62s WALL (       1 calls)

     Called by electrons:
     c_bands      :     13.83s CPU      7.58s WALL (      18 calls)
     sum_band     :      1.56s CPU      0.86s WALL (      18 calls)
     v_of_rho     :      0.11s CPU      0.11s WALL (      19 calls)
     newd         :      0.11s CPU      0.10s WALL (      19 calls)
     mix_rho      :      0.09s CPU      0.05s WALL (      18 calls)

     Called by c_bands:
     init_us_2    :      0.23s CPU      0.13s WALL (     741 calls)
     cegterg      :     13.46s CPU      7.38s WALL (     342 calls)

     Called by *egterg:
     cdiaghg      :      0.95s CPU      0.50s WALL (    2516 calls)
     h_psi        :     10.18s CPU      5.63s WALL (    2535 calls)
     s_psi        :      0.32s CPU      0.17s WALL (    2535 calls)
     g_psi        :      0.10s CPU      0.05s WALL (    2174 calls)

     Called by h_psi:
     h_psi:calbec :      1.02s CPU      0.56s WALL (    2535 calls)
     vloc_psi     :      8.59s CPU      4.75s WALL (    2535 calls)
     add_vuspsi   :      0.43s CPU      0.24s WALL (    2535 calls)

     General routines
     calbec       :      1.19s CPU      0.65s WALL (    3200 calls)
     fft          :      0.36s CPU      0.65s WALL (     234 calls)
     ffts         :      0.01s CPU      0.00s WALL (      18 calls)
     fftw         :      8.17s CPU      4.53s WALL (   36340 calls)

     Parallel routines

     PWSCF        :     16.60s CPU      9.72s WALL


   This run was terminated on:  14:29:24  18Mar2025            

=------------------------------------------------------------------------------=
   JOB DONE.
=------------------------------------------------------------------------------=
