
     Program PWSCF v.7.4.1 starts on 18Mar2025 at 14:29:44 

     This program is part of the open-source Quantum ESPRESSO suite
     for quantum simulation of materials; please cite
         "P. Giannozzi et al., J. Phys.:Condens. Matter 21 395502 (2009);
         "P. Giannozzi et al., J. Phys.:Condens. Matter 29 465901 (2017);
         "P. Giannozzi et al., J. Chem. Phys. 152 154105 (2020);
          URL http://www.quantum-espresso.org", 
     in publications or presentations arising from this work. More details at
     http://www.quantum-espresso.org/quote

     Parallel version (MPI), running on     7 processors

     MPI processes distributed on     1 nodes
     4610 MiB available memory on the printing compute node when the environment starts

     Waiting for input...
     Reading input from standard input

     Current dimensions of program PWSCF are:
     Max number of different atomic species (ntypx) = 10
     Max number of k-points (npk) =  40000
     Max angular momentum in pseudopotentials (lmaxx) =  4

     R & G space division:  proc/nbgrp/npool/nimage =       7
     Subspace diagonalization in iterative solution of the eigenvalue problem:
     a serial algorithm will be used


     Parallelization info
     --------------------
     sticks:   dense  smooth     PW     G-vecs:    dense   smooth      PW
     Min          51      51     15                 4783     4783     815
     Max          52      52     16                 4800     4800     838
     Sum         361     361    109                33523    33523    5791

     Using Slab Decomposition



     bravais-lattice index     =            4
     lattice parameter (alat)  =       4.6561  a.u.
     unit-cell volume          =     532.1899 (a.u.)^3
     number of atoms/cell      =            4
     number of atomic types    =            1
     number of electrons       =        16.00
     number of Kohn-Sham states=           12
     kinetic-energy cutoff     =      60.0000  Ry
     charge density cutoff     =     240.0000  Ry
     scf convergence threshold =      1.0E-08
     mixing beta               =       0.7000
     number of iterations used =            8  plain     mixing
     Exchange-correlation= PBE
                           (   1   4   3   4   0   0   0)

     celldm(1)=   4.656107  celldm(2)=   0.000000  celldm(3)=   6.087896
     celldm(4)=   0.000000  celldm(5)=   0.000000  celldm(6)=   0.000000

     crystal axes: (cart. coord. in units of alat)
               a(1) = (   1.000000   0.000000   0.000000 )  
               a(2) = (  -0.500000   0.866025   0.000000 )  
               a(3) = (   0.000000   0.000000   6.087896 )  

     reciprocal axes: (cart. coord. in units 2 pi/alat)
               b(1) = (  1.000000  0.577350 -0.000000 )  
               b(2) = (  0.000000  1.154701  0.000000 )  
               b(3) = (  0.000000 -0.000000  0.164260 )  


     PseudoPot. # 1 for C  read from file:
     /run/media/rfa/SATA/Skripsi/DFT/Graphene-copy/pseudo/C.pbe-n-rrkjus_psl.0.1.UPF
     MD5 check sum: 96a6a315177d77e6c95bf6fd3870f9e3
     Pseudo is Ultrasoft + core correction, Zval =  4.0
     Generated using &quot;atomic&quot; code by A. Dal Corso  v.6.3MaX
     Using radial grid of 1073 points,  4 beta functions with: 
                l(1) =   0
                l(2) =   0
                l(3) =   1
                l(4) =   1
     Q(r) pseudized with 0 coefficients 


     atomic species   valence    mass     pseudopotential
     C                 4.00    12.01070     C ( 1.00)

      6 Sym. Ops. (no inversion) found



   Cartesian axes

     site n.     atom                  positions (alat units)
         1        C      tau(   1) = (   0.0000000   0.5773503   3.0439478  )
         2        C      tau(   2) = (   0.5000000   0.2886751   3.0439478  )
         3        C      tau(   3) = (   0.0000000   0.0000000   3.2468777  )
         4        C      tau(   4) = (   0.0000000   0.5773503   3.2468777  )

     number of k points=    61  Marzari-Vanderbilt smearing, width (Ry)=  0.0200
                       cart. coord. in units 2pi/alat
        k(    1) = (   0.0000000   0.0000000   0.0000000), wk =   0.0034722
        k(    2) = (   0.0000000   0.0481125   0.0000000), wk =   0.0208333
        k(    3) = (   0.0000000   0.0962250   0.0000000), wk =   0.0208333
        k(    4) = (   0.0000000   0.1443376   0.0000000), wk =   0.0208333
        k(    5) = (   0.0000000   0.1924501   0.0000000), wk =   0.0208333
        k(    6) = (   0.0000000   0.2405626   0.0000000), wk =   0.0208333
        k(    7) = (   0.0000000   0.2886751   0.0000000), wk =   0.0208333
        k(    8) = (   0.0000000   0.3367877   0.0000000), wk =   0.0208333
        k(    9) = (   0.0000000   0.3849002   0.0000000), wk =   0.0208333
        k(   10) = (   0.0000000   0.4330127   0.0000000), wk =   0.0208333
        k(   11) = (   0.0000000   0.4811252   0.0000000), wk =   0.0208333
        k(   12) = (   0.0000000   0.5292377   0.0000000), wk =   0.0208333
        k(   13) = (   0.0000000  -0.5773503   0.0000000), wk =   0.0104167
        k(   14) = (   0.0416667   0.0721688   0.0000000), wk =   0.0208333
        k(   15) = (   0.0416667   0.1202813   0.0000000), wk =   0.0416667
        k(   16) = (   0.0416667   0.1683938   0.0000000), wk =   0.0416667
        k(   17) = (   0.0416667   0.2165064   0.0000000), wk =   0.0416667
        k(   18) = (   0.0416667   0.2646189   0.0000000), wk =   0.0416667
        k(   19) = (   0.0416667   0.3127314   0.0000000), wk =   0.0416667
        k(   20) = (   0.0416667   0.3608439   0.0000000), wk =   0.0416667
        k(   21) = (   0.0416667   0.4089564   0.0000000), wk =   0.0416667
        k(   22) = (   0.0416667   0.4570690   0.0000000), wk =   0.0416667
        k(   23) = (   0.0416667   0.5051815   0.0000000), wk =   0.0416667
        k(   24) = (   0.0416667   0.5532940   0.0000000), wk =   0.0416667
        k(   25) = (   0.0833333   0.1443376   0.0000000), wk =   0.0208333
        k(   26) = (   0.0833333   0.1924501   0.0000000), wk =   0.0416667
        k(   27) = (   0.0833333   0.2405626   0.0000000), wk =   0.0416667
        k(   28) = (   0.0833333   0.2886751   0.0000000), wk =   0.0416667
        k(   29) = (   0.0833333   0.3367877   0.0000000), wk =   0.0416667
        k(   30) = (   0.0833333   0.3849002   0.0000000), wk =   0.0416667
        k(   31) = (   0.0833333   0.4330127   0.0000000), wk =   0.0416667
        k(   32) = (   0.0833333   0.4811252   0.0000000), wk =   0.0416667
        k(   33) = (   0.0833333   0.5292377   0.0000000), wk =   0.0416667
        k(   34) = (   0.0833333   0.5773503   0.0000000), wk =   0.0208333
        k(   35) = (   0.1250000   0.2165064   0.0000000), wk =   0.0208333
        k(   36) = (   0.1250000   0.2646189   0.0000000), wk =   0.0416667
        k(   37) = (   0.1250000   0.3127314   0.0000000), wk =   0.0416667
        k(   38) = (   0.1250000   0.3608439   0.0000000), wk =   0.0416667
        k(   39) = (   0.1250000   0.4089564   0.0000000), wk =   0.0416667
        k(   40) = (   0.1250000   0.4570690   0.0000000), wk =   0.0416667
        k(   41) = (   0.1250000   0.5051815   0.0000000), wk =   0.0416667
        k(   42) = (   0.1250000   0.5532940   0.0000000), wk =   0.0416667
        k(   43) = (   0.1666667   0.2886751   0.0000000), wk =   0.0208333
        k(   44) = (   0.1666667   0.3367877   0.0000000), wk =   0.0416667
        k(   45) = (   0.1666667   0.3849002   0.0000000), wk =   0.0416667
        k(   46) = (   0.1666667   0.4330127   0.0000000), wk =   0.0416667
        k(   47) = (   0.1666667   0.4811252   0.0000000), wk =   0.0416667
        k(   48) = (   0.1666667   0.5292377   0.0000000), wk =   0.0416667
        k(   49) = (   0.1666667   0.5773503   0.0000000), wk =   0.0208333
        k(   50) = (   0.2083333   0.3608439   0.0000000), wk =   0.0208333
        k(   51) = (   0.2083333   0.4089564   0.0000000), wk =   0.0416667
        k(   52) = (   0.2083333   0.4570690   0.0000000), wk =   0.0416667
        k(   53) = (   0.2083333   0.5051815   0.0000000), wk =   0.0416667
        k(   54) = (   0.2083333   0.5532940   0.0000000), wk =   0.0416667
        k(   55) = (   0.2500000   0.4330127   0.0000000), wk =   0.0208333
        k(   56) = (   0.2500000   0.4811252   0.0000000), wk =   0.0416667
        k(   57) = (   0.2500000   0.5292377   0.0000000), wk =   0.0416667
        k(   58) = (   0.2500000   0.5773503   0.0000000), wk =   0.0208333
        k(   59) = (   0.2916667   0.5051815   0.0000000), wk =   0.0208333
        k(   60) = (   0.2916667   0.5532940   0.0000000), wk =   0.0416667
        k(   61) = (   0.3333333   0.5773503   0.0000000), wk =   0.0069444

     Dense  grid:    33523 G-vectors     FFT dimensions: (  24,  24, 144)

     Estimated max dynamical RAM per process >      14.14 MB

     Estimated total dynamical RAM >      98.98 MB

     Check: negative core charge=   -0.000004

     Initial potential from superposition of free atoms

     starting charge      15.9998, renormalised to      16.0000

     negative rho (up, down):  1.215E-04 0.000E+00
     Starting wfcs are   16 randomized atomic wfcs

     total cpu time spent up to now is        1.1 secs

     per-process dynamical memory:    17.0 Mb

     Self-consistent Calculation

     iteration #  1     ecut=    60.00 Ry     beta= 0.70
     Davidson diagonalization with overlap
     ethr =  1.00E-02,  avg # of iterations =  7.8

     negative rho (up, down):  8.024E-04 0.000E+00

     total cpu time spent up to now is        3.3 secs

     total energy              =     -32.69201127 Ry
     estimated scf accuracy    <       6.65948217 Ry

     iteration #  2     ecut=    60.00 Ry     beta= 0.70
     Davidson diagonalization with overlap
     ethr =  1.00E-02,  avg # of iterations =  5.7

     negative rho (up, down):  1.690E-05 0.000E+00

     total cpu time spent up to now is        4.9 secs

     total energy              =     -34.58919703 Ry
     estimated scf accuracy    <       4.43446862 Ry

     iteration #  3     ecut=    60.00 Ry     beta= 0.70
     Davidson diagonalization with overlap
     ethr =  1.00E-02,  avg # of iterations =  2.8

     negative rho (up, down):  1.120E-04 0.000E+00

     total cpu time spent up to now is        5.8 secs

     total energy              =     -35.25001076 Ry
     estimated scf accuracy    <       0.10217914 Ry

     iteration #  4     ecut=    60.00 Ry     beta= 0.70
     Davidson diagonalization with overlap
     c_bands:  1 eigenvalues not converged
     c_bands:  1 eigenvalues not converged
     ethr =  6.39E-04,  avg # of iterations = 12.0

     negative rho (up, down):  1.772E-04 0.000E+00

     total cpu time spent up to now is        8.4 secs

     total energy              =     -35.49895820 Ry
     estimated scf accuracy    <       0.12161044 Ry

     iteration #  5     ecut=    60.00 Ry     beta= 0.70
     Davidson diagonalization with overlap
     ethr =  6.39E-04,  avg # of iterations =  3.4

     negative rho (up, down):  6.156E-04 0.000E+00

     total cpu time spent up to now is        9.4 secs

     total energy              =     -35.49136175 Ry
     estimated scf accuracy    <       0.02854579 Ry

     iteration #  6     ecut=    60.00 Ry     beta= 0.70
     Davidson diagonalization with overlap
     c_bands:  2 eigenvalues not converged
     c_bands:  1 eigenvalues not converged
     c_bands:  1 eigenvalues not converged
     c_bands:  1 eigenvalues not converged
     ethr =  1.78E-04,  avg # of iterations = 12.0

     negative rho (up, down):  7.385E-04 0.000E+00

     total cpu time spent up to now is       11.4 secs

     total energy              =     -35.50752522 Ry
     estimated scf accuracy    <       0.00823627 Ry

     iteration #  7     ecut=    60.00 Ry     beta= 0.70
     Davidson diagonalization with overlap
     c_bands:  1 eigenvalues not converged
     c_bands:  1 eigenvalues not converged
     ethr =  5.15E-05,  avg # of iterations =  7.1

     negative rho (up, down):  7.306E-04 0.000E+00

     total cpu time spent up to now is       12.9 secs

     total energy              =     -35.50874657 Ry
     estimated scf accuracy    <       0.00784510 Ry

     iteration #  8     ecut=    60.00 Ry     beta= 0.70
     Davidson diagonalization with overlap
     ethr =  4.90E-05,  avg # of iterations =  1.8

     negative rho (up, down):  8.073E-04 0.000E+00

     total cpu time spent up to now is       13.8 secs

     total energy              =     -35.50816231 Ry
     estimated scf accuracy    <       0.00387024 Ry

     iteration #  9     ecut=    60.00 Ry     beta= 0.70
     Davidson diagonalization with overlap
     c_bands:  1 eigenvalues not converged
     ethr =  2.42E-05,  avg # of iterations =  3.2

     negative rho (up, down):  8.948E-04 0.000E+00

     total cpu time spent up to now is       14.8 secs

     total energy              =     -35.50797740 Ry
     estimated scf accuracy    <       0.00116702 Ry

     iteration # 10     ecut=    60.00 Ry     beta= 0.70
     Davidson diagonalization with overlap
     c_bands:  1 eigenvalues not converged
     c_bands:  1 eigenvalues not converged
     c_bands:  1 eigenvalues not converged
     c_bands:  1 eigenvalues not converged
     c_bands:  1 eigenvalues not converged
     ethr =  7.29E-06,  avg # of iterations = 10.2

     negative rho (up, down):  8.719E-04 0.000E+00

     total cpu time spent up to now is       16.6 secs

     total energy              =     -35.50861373 Ry
     estimated scf accuracy    <       0.00002913 Ry

     iteration # 11     ecut=    60.00 Ry     beta= 0.70
     Davidson diagonalization with overlap
     c_bands:  1 eigenvalues not converged
     c_bands:  1 eigenvalues not converged
     c_bands:  1 eigenvalues not converged
     c_bands:  1 eigenvalues not converged
     c_bands:  1 eigenvalues not converged
     c_bands:  1 eigenvalues not converged
     c_bands:  1 eigenvalues not converged
     c_bands:  1 eigenvalues not converged
     c_bands:  1 eigenvalues not converged
     ethr =  1.82E-07,  avg # of iterations = 14.0

     negative rho (up, down):  8.321E-04 0.000E+00

     total cpu time spent up to now is       20.1 secs

     total energy              =     -35.50877409 Ry
     estimated scf accuracy    <       0.00003560 Ry

     iteration # 12     ecut=    60.00 Ry     beta= 0.70
     Davidson diagonalization with overlap
     c_bands:  1 eigenvalues not converged
     c_bands:  1 eigenvalues not converged
     c_bands:  1 eigenvalues not converged
     ethr =  1.82E-07,  avg # of iterations =  5.4

     negative rho (up, down):  8.463E-04 0.000E+00

     total cpu time spent up to now is       21.3 secs

     total energy              =     -35.50878714 Ry
     estimated scf accuracy    <       0.00000996 Ry

     iteration # 13     ecut=    60.00 Ry     beta= 0.70
     Davidson diagonalization with overlap
     c_bands:  1 eigenvalues not converged
     ethr =  6.22E-08,  avg # of iterations =  5.0

     negative rho (up, down):  8.582E-04 0.000E+00

     total cpu time spent up to now is       22.6 secs

     total energy              =     -35.50880017 Ry
     estimated scf accuracy    <       0.00002303 Ry

     iteration # 14     ecut=    60.00 Ry     beta= 0.70
     Davidson diagonalization with overlap
     c_bands:  1 eigenvalues not converged
     ethr =  6.22E-08,  avg # of iterations =  2.9

     negative rho (up, down):  8.587E-04 0.000E+00

     total cpu time spent up to now is       23.6 secs

     total energy              =     -35.50880388 Ry
     estimated scf accuracy    <       0.00004923 Ry

     iteration # 15     ecut=    60.00 Ry     beta= 0.70
     Davidson diagonalization with overlap
     ethr =  6.22E-08,  avg # of iterations =  1.3

     negative rho (up, down):  8.539E-04 0.000E+00

     total cpu time spent up to now is       24.4 secs

     total energy              =     -35.50879913 Ry
     estimated scf accuracy    <       0.00005022 Ry

     iteration # 16     ecut=    60.00 Ry     beta= 0.70
     Davidson diagonalization with overlap
     ethr =  6.22E-08,  avg # of iterations =  1.0

     negative rho (up, down):  8.493E-04 0.000E+00

     total cpu time spent up to now is       25.2 secs

     total energy              =     -35.50879241 Ry
     estimated scf accuracy    <       0.00003744 Ry

     iteration # 17     ecut=    60.00 Ry     beta= 0.70
     Davidson diagonalization with overlap
     ethr =  6.22E-08,  avg # of iterations =  1.2

     negative rho (up, down):  8.443E-04 0.000E+00

     total cpu time spent up to now is       26.0 secs

     total energy              =     -35.50878438 Ry
     estimated scf accuracy    <       0.00001886 Ry

     iteration # 18     ecut=    60.00 Ry     beta= 0.70
     Davidson diagonalization with overlap
     ethr =  6.22E-08,  avg # of iterations =  3.8

     negative rho (up, down):  8.451E-04 0.000E+00

     total cpu time spent up to now is       27.1 secs

     total energy              =     -35.50878806 Ry
     estimated scf accuracy    <       0.00000017 Ry

     iteration # 19     ecut=    60.00 Ry     beta= 0.70
     Davidson diagonalization with overlap
     ethr =  1.08E-09,  avg # of iterations = 13.9

     negative rho (up, down):  8.496E-04 0.000E+00

     total cpu time spent up to now is       30.6 secs

     total energy              =     -35.50878931 Ry
     estimated scf accuracy    <       0.00000046 Ry

     iteration # 20     ecut=    60.00 Ry     beta= 0.70
     Davidson diagonalization with overlap
     c_bands:  1 eigenvalues not converged
     ethr =  1.08E-09,  avg # of iterations =  5.3

     negative rho (up, down):  8.489E-04 0.000E+00

     total cpu time spent up to now is       32.0 secs

     total energy              =     -35.50878947 Ry
     estimated scf accuracy    <       0.00000032 Ry

     iteration # 21     ecut=    60.00 Ry     beta= 0.70
     Davidson diagonalization with overlap
     ethr =  1.08E-09,  avg # of iterations =  1.8

     negative rho (up, down):  8.478E-04 0.000E+00

     total cpu time spent up to now is       32.9 secs

     total energy              =     -35.50878948 Ry
     estimated scf accuracy    <       0.00000004 Ry

     iteration # 22     ecut=    60.00 Ry     beta= 0.70
     Davidson diagonalization with overlap
     ethr =  2.42E-10,  avg # of iterations =  4.8

     negative rho (up, down):  8.477E-04 0.000E+00

     total cpu time spent up to now is       34.1 secs

     End of self-consistent calculation

          k = 0.0000 0.0000 0.0000 (  4149 PWs)   bands (ev):

   -29.6054 -21.8885 -21.8885 -16.6541  -9.3239  -9.3239  -4.8846   3.5627
     3.8748   4.1905   4.9461   5.8223

          k = 0.0000 0.0481 0.0000 (  4156 PWs)   bands (ev):

   -29.6016 -21.9610 -21.9249 -16.6094  -9.2597  -9.1659  -4.8515   3.5313
     3.9288   4.1161   4.9817   5.8904

          k = 0.0000 0.0962 0.0000 (  4170 PWs)   bands (ev):

   -29.5905 -22.1671 -22.0307 -16.4744  -9.0700  -8.7063  -4.7536   3.2129
     4.0889   4.1066   5.0582   5.9530

          k = 0.0000 0.1443 0.0000 (  4192 PWs)   bands (ev):

   -29.5726 -22.4732 -22.1965 -16.2477  -8.7627  -7.9802  -4.5951   2.4437
     4.3258   4.3502   5.0383   5.8513

          k = 0.0000 0.1925 0.0000 (  4194 PWs)   bands (ev):

   -29.5487 -22.8395 -22.4071 -15.9272  -8.3492  -7.0336  -4.3854   1.3841
     4.4834   4.7276   4.9383   6.0511

          k = 0.0000 0.2406 0.0000 (  4186 PWs)   bands (ev):

   -29.5200 -23.2288 -22.6455 -15.5148  -7.8418  -5.9119  -4.1454   0.1837
     4.1032   5.2316   5.3308   6.4612

          k = 0.0000 0.2887 0.0000 (  4186 PWs)   bands (ev):

   -29.4883 -23.6110 -22.8939 -15.0132  -7.2545  -4.6581  -3.9338  -1.0052
     3.5888   5.8440   5.9262   6.4771

          k = 0.0000 0.3368 0.0000 (  4182 PWs)   bands (ev):

   -29.4553 -23.9631 -23.1350 -14.4278  -6.6061  -3.9547  -3.3122  -1.9107
     3.0562   5.2755   6.5585   6.6484

          k = 0.0000 0.3849 0.0000 (  4180 PWs)   bands (ev):

   -29.4234 -24.2690 -23.3538 -13.7704  -5.9534  -4.5286  -2.1347  -1.9149
     2.5305   4.0481   6.7778   7.3686

          k = 0.0000 0.4330 0.0000 (  4186 PWs)   bands (ev):

   -29.3951 -24.5169 -23.5376 -13.0613  -5.8829  -4.8612  -1.8800  -0.5111
     2.0306   2.8442   6.0843   8.2545

          k = 0.0000 0.4811 0.0000 (  4172 PWs)   bands (ev):

   -29.3726 -24.6988 -23.6762 -12.3446  -6.7611  -4.2738  -1.4637   0.8451
     1.5814   1.7190   5.3468   9.2077

          k = 0.0000 0.5292 0.0000 (  4192 PWs)   bands (ev):

   -29.3585 -24.8100 -23.7624 -11.7286  -7.5506  -3.7155  -0.9802   0.7245
     1.2625   2.0707   4.5479  10.1863

          k = 0.0000-0.5774 0.0000 (  4184 PWs)   bands (ev):

   -29.3535 -24.8474 -23.7916 -11.4579  -7.8844  -3.4834  -0.6133   0.1669
     1.1350   2.7979   3.9740  10.8639

          k = 0.0417 0.0722 0.0000 (  4169 PWs)   bands (ev):

   -29.5942 -22.1054 -21.9911 -16.5193  -9.1349  -8.8552  -4.7860   3.3487
     4.0361   4.0841   5.0379   6.0211

          k = 0.0417 0.1203 0.0000 (  4181 PWs)   bands (ev):

   -29.5796 -22.3736 -22.1133 -16.3387  -8.8921  -8.2578  -4.6575   2.7717
     4.2338   4.2457   5.0576   5.8367

          k = 0.0417 0.1684 0.0000 (  4190 PWs)   bands (ev):

   -29.5583 -22.7267 -22.2819 -16.0651  -8.5395  -7.4167  -4.4723   1.8580
     4.4709   4.5604   4.8810   5.9158

          k = 0.0417 0.2165 0.0000 (  4176 PWs)   bands (ev):

   -29.5312 -23.1241 -22.4826 -15.6985  -8.0878  -6.3787  -4.2434   0.7365
     4.1866   5.0078   5.1071   6.2491

          k = 0.0417 0.2646 0.0000 (  4180 PWs)   bands (ev):

   -29.4996 -23.5317 -22.6998 -15.2410  -7.5489  -5.1906  -4.0020  -0.4617
     3.6494   5.5678   5.6368   6.6842

          k = 0.0417 0.3127 0.0000 (  4181 PWs)   bands (ev):

   -29.4650 -23.9222 -22.9172 -14.6972  -6.9369  -3.9751  -3.7740  -1.5519
     3.0934   5.7536   6.2335   6.3008

          k = 0.0417 0.3608 0.0000 (  4180 PWs)   bands (ev):

   -29.4296 -24.2748 -23.1205 -14.0747  -6.2784  -4.1610  -2.5015  -2.1424
     2.5526   4.5628   6.9548   7.0668

          k = 0.0417 0.4090 0.0000 (  4178 PWs)   bands (ev):

   -29.3959 -24.5741 -23.2975 -13.3883  -5.7292  -4.8643  -2.0659  -1.1120
     2.0449   3.3594   6.6975   7.8661

          k = 0.0417 0.4571 0.0000 (  4177 PWs)   bands (ev):

   -29.3666 -24.8088 -23.4385 -12.6684  -6.2693  -4.6249  -1.7088   0.2196
     1.6141   2.2042   5.9983   8.7778

          k = 0.0417 0.5052 0.0000 (  4185 PWs)   bands (ev):

   -29.3453 -24.9700 -23.5365 -11.9825  -7.1590  -4.0034  -1.2513   0.9147
     1.1471   1.8138   5.2314   9.7466

          k = 0.0417 0.5533 0.0000 (  4198 PWs)   bands (ev):

   -29.3340 -25.0523 -23.5867 -11.5018  -7.7626  -3.5780  -0.7519   0.2441
     0.8416   2.7433   4.4747  10.6741

          k = 0.0833 0.1443 0.0000 (  4169 PWs)   bands (ev):

   -29.5613 -22.7029 -22.2218 -16.1105  -8.6128  -7.5389  -4.5016   2.0417
     4.4492   4.5025   4.8454   5.8606

          k = 0.0833 0.1925 0.0000 (  4177 PWs)   bands (ev):

   -29.5360 -23.1072 -22.3552 -15.7906  -8.2365  -6.5985  -4.2936   1.0837
     4.1196   4.8962   4.9778   6.1257

          k = 0.0833 0.2406 0.0000 (  4180 PWs)   bands (ev):

   -29.5041 -23.5453 -22.5050 -15.3793  -7.7697  -5.4883  -4.0488  -0.0217
     3.4765   5.4045   5.4481   6.5168

          k = 0.0833 0.2887 0.0000 (  4179 PWs)   bands (ev):

   -29.4662 -23.9835 -22.6605 -14.8789  -7.2214  -4.2894  -3.7837  -1.1538
     2.8403   5.9420   6.0342   6.1276

          k = 0.0833 0.3368 0.0000 (  4175 PWs)   bands (ev):

   -29.4241 -24.3967 -22.8110 -14.2961  -6.6058  -3.8893  -2.8555  -2.0492
     2.2561   4.9107   6.7027   6.7832

          k = 0.0833 0.3849 0.0000 (  4179 PWs)   bands (ev):

   -29.3801 -24.7642 -22.9470 -13.6411  -5.9626  -4.4649  -2.2624  -1.5184
     1.7447   3.7432   7.3217   7.6173

          k = 0.0833 0.4330 0.0000 (  4187 PWs)   bands (ev):

   -29.3378 -25.0696 -23.0606 -12.9357  -5.7686  -4.9468  -2.0027  -0.2736
     1.3864   2.5940   6.9845   8.4794

          k = 0.0833 0.4811 0.0000 (  4189 PWs)   bands (ev):

   -29.3022 -25.2991 -23.1457 -12.2234  -6.6343  -4.3841  -1.5926   0.2855
     1.3891   1.8462   6.2733   9.4003

          k = 0.0833 0.5292 0.0000 (  4195 PWs)   bands (ev):

   -29.2782 -25.4419 -23.1983 -11.6129  -7.4195  -3.8294  -1.1031   0.0554
     0.5884   2.7707   5.4930  10.3626

          k = 0.0833 0.5774 0.0000 (  4184 PWs)   bands (ev):

   -29.2694 -25.4903 -23.2161 -11.3447  -7.7501  -3.5960  -0.6020  -0.4179
     0.2815   3.3784   4.9967  11.0339

          k = 0.1250 0.2165 0.0000 (  4163 PWs)   bands (ev):

   -29.5051 -23.5560 -22.4300 -15.4251  -7.8526  -5.5820  -4.0655   0.1585
     3.3682   5.3515   5.3820   6.4560

          k = 0.1250 0.2646 0.0000 (  4172 PWs)   bands (ev):

   -29.4652 -24.0298 -22.5082 -14.9706  -7.3882  -4.4498  -3.7820  -0.8738
     2.5972   5.8753   5.9215   6.2057

          k = 0.1250 0.3127 0.0000 (  4175 PWs)   bands (ev):

   -29.4163 -24.4962 -22.5863 -14.4308  -6.8482  -3.7614  -3.0198  -1.8923
     1.9199   5.1196   6.5520   6.6064

          k = 0.1250 0.3608 0.0000 (  4180 PWs)   bands (ev):

   -29.3600 -24.9297 -22.6599 -13.8137  -6.2460  -3.9694  -2.4816  -1.7594
     1.3840   4.0047   7.2400   7.3972

          k = 0.1250 0.4090 0.0000 (  4182 PWs)   bands (ev):

   -29.2999 -25.3096 -22.7244 -13.1343  -5.6554  -4.7871  -2.3872  -0.6323
     1.1262   2.8799   7.7635   8.2921

          k = 0.1250 0.4571 0.0000 (  4182 PWs)   bands (ev):

   -29.2419 -25.6172 -22.7761 -12.4224  -6.0227  -4.7606  -2.0714  -0.2415
     1.4666   2.0010   7.4105   9.1896

          k = 0.1250 0.5052 0.0000 (  4183 PWs)   bands (ev):

   -29.1950 -25.8351 -22.8120 -11.7476  -6.9043  -4.1567  -1.7046  -0.4027
     0.7232   2.8726   6.6696  10.1027

          k = 0.1250 0.5533 0.0000 (  4180 PWs)   bands (ev):

   -29.1683 -25.9485 -22.8303 -11.2772  -7.4965  -3.7313  -1.3735  -0.5636
     0.0231   3.8392   5.9280  11.0022

          k = 0.1667 0.2887 0.0000 (  4170 PWs)   bands (ev):

   -29.4128 -24.5323 -22.5057 -14.4758  -6.9372  -3.7318  -3.0628  -1.8096
     1.7741   5.1898   6.5040   6.5458

          k = 0.1667 0.3368 0.0000 (  4171 PWs)   bands (ev):

   -29.3466 -25.0211 -22.5022 -13.9010  -6.4166  -3.5710  -2.7012  -1.8700
     1.1519   4.1379   7.1546   7.2823

          k = 0.1667 0.3849 0.0000 (  4172 PWs)   bands (ev):

   -29.2681 -25.4709 -22.4993 -13.2563  -5.8409  -4.1864  -2.8935  -0.8509
     0.9520   3.0548   7.8435   8.1291

          k = 0.1667 0.4330 0.0000 (  4181 PWs)   bands (ev):

   -29.1829 -25.8604 -22.4972 -12.5642  -5.4600  -4.9497  -2.7050  -0.5595
     1.4758   2.1594   8.2779   9.0819

          k = 0.1667 0.4811 0.0000 (  4170 PWs)   bands (ev):

   -29.1018 -26.1663 -22.4959 -11.8679  -6.2728  -4.4657  -2.5121  -0.6558
     0.8488   2.9831   7.8621   9.9568

          k = 0.1667 0.5292 0.0000 (  4178 PWs)   bands (ev):

   -29.0414 -26.3646 -22.4953 -11.2783  -7.0329  -3.9210  -2.3760  -0.7055
     0.0240   4.1560   7.0692  10.8351

          k = 0.1667 0.5774 0.0000 (  4178 PWs)   bands (ev):

   -29.0188 -26.4339 -22.4950 -11.0225  -7.3487  -3.6814  -2.3269  -0.5552
    -0.4849   4.8242   6.5304  11.4719

          k = 0.2083 0.3608 0.0000 (  4180 PWs)   bands (ev):

   -29.2558 -25.5278 -22.4203 -13.2975  -5.9227  -3.6228  -3.4128  -0.9236
     0.8933   3.1137   7.8235   8.0721

          k = 0.2083 0.4090 0.0000 (  4162 PWs)   bands (ev):

   -29.1458 -25.9922 -22.3477 -12.6367  -5.3935  -4.5397  -3.3516  -0.6979
     1.4767   2.2478   8.4976   8.9718

          k = 0.2083 0.4571 0.0000 (  4157 PWs)   bands (ev):

   -29.0254 -26.3906 -22.2896 -11.9494  -5.6122  -4.6710  -3.3279  -0.7748
     0.9269   3.0631   8.8326  10.0516

          k = 0.2083 0.5052 0.0000 (  4164 PWs)   bands (ev):

   -28.9133 -26.6937 -22.2493 -11.3067  -6.4301  -4.0959  -3.3346  -0.8422
     0.0815   4.3595   8.2813  10.6906

          k = 0.2083 0.5533 0.0000 (  4174 PWs)   bands (ev):

   -28.8417 -26.8625 -22.2286 -10.8691  -6.9720  -3.6578  -3.3465  -0.9057
    -0.4560   5.4832   7.4434  11.5087

          k = 0.2500 0.4330 0.0000 (  4156 PWs)   bands (ev):

   -28.9951 -26.4710 -22.2179 -11.9785  -5.2426  -4.7108  -3.7880  -0.8105
     0.9531   3.0917   9.1446   9.9215

          k = 0.2500 0.4811 0.0000 (  4161 PWs)   bands (ev):

   -28.8270 -26.8826 -22.1191 -11.3299  -5.8514  -4.1995  -4.0881  -0.9148
     0.1184   4.4598   9.3769  10.5519

          k = 0.2500 0.5292 0.0000 (  4161 PWs)   bands (ev):

   -28.6733 -27.1857 -22.0572 -10.7970  -6.4388  -4.2602  -3.6459  -1.1729
    -0.3917   5.7965   8.6217  11.0604

          k = 0.2500 0.5774 0.0000 (  4160 PWs)   bands (ev):

   -28.6044 -27.3049 -22.0362 -10.5746  -6.6879  -4.3131  -3.3664  -1.4156
    -0.4988   6.6523   7.9072  11.4585

          k = 0.2917 0.5052 0.0000 (  4144 PWs)   bands (ev):

   -28.5954 -27.3157 -21.9981 -10.7778  -6.0746  -4.7484  -3.6423  -1.2657
    -0.3691   5.8869   9.7193  10.0969

          k = 0.2917 0.5533 0.0000 (  4148 PWs)   bands (ev):

   -28.3798 -27.6338 -21.9354 -10.4262  -6.2409  -5.1121  -3.1137  -1.8227
    -0.4766   7.2069   8.8491  10.1648

          k = 0.3333 0.5774 0.0000 (  4152 PWs)   bands (ev):

   -28.0330 -28.0330 -21.8936 -10.2883  -5.7944  -5.7944  -2.4998  -2.4998
    -0.4807   8.1760   9.1026   9.1027

     the Fermi energy is     0.4085 ev

!    total energy              =     -35.50878950 Ry
     estimated scf accuracy    <          3.4E-09 Ry
     smearing contrib. (-TS)   =       0.00065537 Ry
     internal energy E=F+TS    =     -35.50944487 Ry

     The total energy is F=E-TS. E is the sum of the following terms:
     one-electron contribution =    -617.25091182 Ry
     hartree contribution      =     312.07962336 Ry
     xc contribution           =     -19.65974636 Ry
     ewald contribution        =     289.32158995 Ry

     convergence has been achieved in  22 iterations

     negative rho (up, down):  8.477E-04 0.000E+00

     Forces acting on atoms (cartesian axes, Ry/au):

     atom    1 type  1   force =     0.00000000   -0.00000000  -24.01410417
     atom    2 type  1   force =     0.00000000    0.00000000   -0.42185270
     atom    3 type  1   force =     0.00000000    0.00000000    0.42182035
     atom    4 type  1   force =     0.00000000    0.00000000   24.01413651

     Total force =    33.966334     Total SCF correction =     0.000100


     Computing stress (Cartesian axis) and pressure


     negative rho (up, down):  8.477E-04 0.000E+00
          total   stress  (Ry/bohr**3)                   (kbar)     P=     2878.57
   0.00773323   0.00000000   0.00000000         1137.60        0.00        0.00
   0.00000000   0.00773323   0.00000000            0.00     1137.60        0.00
   0.00000000   0.00000000   0.04323791            0.00        0.00     6360.52


     Writing all to output data dir /run/media/rfa/SATA/Skripsi/DFT/Graphene-copy/tmp/gr-ab-2L.save/ :
     XML data file, charge density, pseudopotentials, collected wavefunctions

     init_run     :      1.06s CPU      1.06s WALL (       1 calls)
     electrons    :     59.64s CPU     33.01s WALL (       1 calls)
     forces       :      0.13s CPU      0.08s WALL (       1 calls)
     stress       :      0.50s CPU      0.29s WALL (       1 calls)

     Called by init_run:
     wfcinit      :      0.70s CPU      0.40s WALL (       1 calls)
     potinit      :      0.01s CPU      0.01s WALL (       1 calls)
     hinit0       :      0.32s CPU      0.62s WALL (       1 calls)

     Called by electrons:
     c_bands      :     53.49s CPU     29.51s WALL (      22 calls)
     sum_band     :      5.74s CPU      3.17s WALL (      22 calls)
     v_of_rho     :      0.14s CPU      0.14s WALL (      23 calls)
     newd         :      0.13s CPU      0.12s WALL (      23 calls)
     mix_rho      :      0.12s CPU      0.07s WALL (      22 calls)

     Called by c_bands:
     init_us_2    :      0.99s CPU      0.52s WALL (    2867 calls)
     cegterg      :     51.88s CPU     28.66s WALL (    1342 calls)

     Called by *egterg:
     cdiaghg      :      3.59s CPU      1.94s WALL (    9055 calls)
     h_psi        :     39.92s CPU     22.26s WALL (    9116 calls)
     s_psi        :      1.00s CPU      0.54s WALL (    9116 calls)
     g_psi        :      0.37s CPU      0.20s WALL (    7713 calls)

     Called by h_psi:
     h_psi:calbec :      3.90s CPU      2.12s WALL (    9116 calls)
     vloc_psi     :     33.83s CPU     18.94s WALL (    9116 calls)
     add_vuspsi   :      1.66s CPU      0.89s WALL (    9116 calls)

     General routines
     calbec       :      4.52s CPU      2.46s WALL (   11495 calls)
     fft          :      0.36s CPU      0.66s WALL (     278 calls)
     ffts         :      0.01s CPU      0.01s WALL (      22 calls)
     fftw         :     32.52s CPU     18.25s WALL (  136748 calls)

     Parallel routines

     PWSCF        :   1m 1.45s CPU     34.62s WALL


   This run was terminated on:  14:30:18  18Mar2025            

=------------------------------------------------------------------------------=
   JOB DONE.
=------------------------------------------------------------------------------=
