
     Program PWSCF v.7.4.1 starts on 16Apr2025 at 14:54:56 

     This program is part of the open-source Quantum ESPRESSO suite
     for quantum simulation of materials; please cite
         "P. Giannozzi et al., J. Phys.:Condens. Matter 21 395502 (2009);
         "P. Giannozzi et al., J. Phys.:Condens. Matter 29 465901 (2017);
         "P. Giannozzi et al., J. Chem. Phys. 152 154105 (2020);
          URL http://www.quantum-espresso.org", 
     in publications or presentations arising from this work. More details at
     http://www.quantum-espresso.org/quote

     Parallel version (MPI), running on     7 processors

     MPI processes distributed on     1 nodes
     13292 MiB available memory on the printing compute node when the environment starts

     Waiting for input...
     Reading input from standard input

     Current dimensions of program PWSCF are:
     Max number of different atomic species (ntypx) = 10
     Max number of k-points (npk) =  40000
     Max angular momentum in pseudopotentials (lmaxx) =  4

     R & G space division:  proc/nbgrp/npool/nimage =       7
     Subspace diagonalization in iterative solution of the eigenvalue problem:
     a serial algorithm will be used


     Parallelization info
     --------------------
     sticks:   dense  smooth     PW     G-vecs:    dense   smooth      PW
     Min          17      17      5                  919      919     179
     Max          18      18      6                  934      934     202
     Sum         121     121     37                 6489     6489    1309

     Using Slab Decomposition



     bravais-lattice index     =            4
     lattice parameter (alat)  =       4.6561  a.u.
     unit-cell volume          =     532.1899 (a.u.)^3
     number of atoms/cell      =            4
     number of atomic types    =            1
     number of electrons       =        16.00
     number of Kohn-Sham states=           12
     kinetic-energy cutoff     =      20.0000  Ry
     charge density cutoff     =      80.0000  Ry
     scf convergence threshold =      1.0E-08
     mixing beta               =       0.7000
     number of iterations used =            8  plain     mixing
     Exchange-correlation= PBE
                           (   1   4   3   4   0   0   0)

     celldm(1)=   4.656107  celldm(2)=   0.000000  celldm(3)=   6.087896
     celldm(4)=   0.000000  celldm(5)=   0.000000  celldm(6)=   0.000000

     crystal axes: (cart. coord. in units of alat)
               a(1) = (   1.000000   0.000000   0.000000 )  
               a(2) = (  -0.500000   0.866025   0.000000 )  
               a(3) = (   0.000000   0.000000   6.087896 )  

     reciprocal axes: (cart. coord. in units 2 pi/alat)
               b(1) = (  1.000000  0.577350 -0.000000 )  
               b(2) = (  0.000000  1.154701  0.000000 )  
               b(3) = (  0.000000 -0.000000  0.164260 )  


     PseudoPot. # 1 for C  read from file:
     /home/rfa/Skripsi/DFT/dft-graphene/pseudo/C.pbe-n-rrkjus_psl.0.1.UPF
     MD5 check sum: 96a6a315177d77e6c95bf6fd3870f9e3
     Pseudo is Ultrasoft + core correction, Zval =  4.0
     Generated using &quot;atomic&quot; code by A. Dal Corso  v.6.3MaX
     Using radial grid of 1073 points,  4 beta functions with: 
                l(1) =   0
                l(2) =   0
                l(3) =   1
                l(4) =   1
     Q(r) pseudized with 0 coefficients 


     atomic species   valence    mass     pseudopotential
     C                 4.00    12.01070     C ( 1.00)

      6 Sym. Ops. (no inversion) found



   Cartesian axes

     site n.     atom                  positions (alat units)
         1        C      tau(   1) = (   0.0000000   0.5773503   3.0439478  )
         2        C      tau(   2) = (   0.5000000   0.2886751   3.0439478  )
         3        C      tau(   3) = (   0.0000000   0.0000000   3.2468777  )
         4        C      tau(   4) = (   0.0000000   0.5773503   3.2468777  )

     number of k points=    30  Marzari-Vanderbilt smearing, width (Ry)=  0.0200
                       cart. coord. in units 2pi/alat
        k(    1) = (   0.0000000   0.0000000   0.0000000), wk =   0.0078125
        k(    2) = (   0.0000000   0.0721688   0.0000000), wk =   0.0468750
        k(    3) = (   0.0000000   0.1443376   0.0000000), wk =   0.0468750
        k(    4) = (   0.0000000   0.2165064   0.0000000), wk =   0.0468750
        k(    5) = (   0.0000000   0.2886751   0.0000000), wk =   0.0468750
        k(    6) = (   0.0000000   0.3608439   0.0000000), wk =   0.0468750
        k(    7) = (   0.0000000   0.4330127   0.0000000), wk =   0.0468750
        k(    8) = (   0.0000000   0.5051815   0.0000000), wk =   0.0468750
        k(    9) = (   0.0000000  -0.5773503   0.0000000), wk =   0.0234375
        k(   10) = (   0.0625000   0.1082532   0.0000000), wk =   0.0468750
        k(   11) = (   0.0625000   0.1804220   0.0000000), wk =   0.0937500
        k(   12) = (   0.0625000   0.2525907   0.0000000), wk =   0.0937500
        k(   13) = (   0.0625000   0.3247595   0.0000000), wk =   0.0937500
        k(   14) = (   0.0625000   0.3969283   0.0000000), wk =   0.0937500
        k(   15) = (   0.0625000   0.4690971   0.0000000), wk =   0.0937500
        k(   16) = (   0.0625000   0.5412659   0.0000000), wk =   0.0937500
        k(   17) = (   0.1250000   0.2165064   0.0000000), wk =   0.0468750
        k(   18) = (   0.1250000   0.2886751   0.0000000), wk =   0.0937500
        k(   19) = (   0.1250000   0.3608439   0.0000000), wk =   0.0937500
        k(   20) = (   0.1250000   0.4330127   0.0000000), wk =   0.0937500
        k(   21) = (   0.1250000   0.5051815   0.0000000), wk =   0.0937500
        k(   22) = (   0.1250000   0.5773503   0.0000000), wk =   0.0468750
        k(   23) = (   0.1875000   0.3247595   0.0000000), wk =   0.0468750
        k(   24) = (   0.1875000   0.3969283   0.0000000), wk =   0.0937500
        k(   25) = (   0.1875000   0.4690971   0.0000000), wk =   0.0937500
        k(   26) = (   0.1875000   0.5412659   0.0000000), wk =   0.0937500
        k(   27) = (   0.2500000   0.4330127   0.0000000), wk =   0.0468750
        k(   28) = (   0.2500000   0.5051815   0.0000000), wk =   0.0937500
        k(   29) = (   0.2500000   0.5773503   0.0000000), wk =   0.0468750
        k(   30) = (   0.3125000   0.5412659   0.0000000), wk =   0.0468750

     Dense  grid:     6489 G-vectors     FFT dimensions: (  15,  15,  81)

     Estimated max dynamical RAM per process >       2.23 MB

     Estimated total dynamical RAM >      15.61 MB

     Check: negative core charge=   -0.000310

     Initial potential from superposition of free atoms

     starting charge      15.9998, renormalised to      16.0000

     negative rho (up, down):  1.235E-02 0.000E+00
     Starting wfcs are   16 randomized atomic wfcs

     total cpu time spent up to now is        0.3 secs

     per-process dynamical memory:     7.9 Mb

     Self-consistent Calculation

     iteration #  1     ecut=    20.00 Ry     beta= 0.70
     Davidson diagonalization with overlap
     ethr =  1.00E-02,  avg # of iterations =  4.5
     Minimization algorithm failed to find Fermi energy: reverting to bisection
     Possible cause: smearing is larger than the electronic band-gap.

     negative rho (up, down):  1.070E-01 0.000E+00

     total cpu time spent up to now is        0.8 secs

     total energy              =     -32.08748785 Ry
     estimated scf accuracy    <       3.70083488 Ry

     iteration #  2     ecut=    20.00 Ry     beta= 0.70
     Davidson diagonalization with overlap
     ethr =  1.00E-02,  avg # of iterations =  5.3

     negative rho (up, down):  4.513E-03 0.000E+00

     total cpu time spent up to now is        1.2 secs

     total energy              =     -31.34429637 Ry
     estimated scf accuracy    <       6.74322890 Ry

     iteration #  3     ecut=    20.00 Ry     beta= 0.70
     Davidson diagonalization with overlap
     ethr =  1.00E-02,  avg # of iterations =  4.7

     negative rho (up, down):  1.202E-02 0.000E+00

     total cpu time spent up to now is        1.5 secs

     total energy              =     -33.60159491 Ry
     estimated scf accuracy    <       0.35824267 Ry

     iteration #  4     ecut=    20.00 Ry     beta= 0.70
     Davidson diagonalization with overlap
     ethr =  2.24E-03,  avg # of iterations =  2.1

     negative rho (up, down):  2.400E-02 0.000E+00

     total cpu time spent up to now is        1.8 secs

     total energy              =     -33.57345006 Ry
     estimated scf accuracy    <       0.14859704 Ry

     iteration #  5     ecut=    20.00 Ry     beta= 0.70
     Davidson diagonalization with overlap
     ethr =  9.29E-04,  avg # of iterations =  2.3

     negative rho (up, down):  3.822E-02 0.000E+00

     total cpu time spent up to now is        2.1 secs

     total energy              =     -33.54795676 Ry
     estimated scf accuracy    <       0.07155247 Ry

     iteration #  6     ecut=    20.00 Ry     beta= 0.70
     Davidson diagonalization with overlap
     ethr =  4.47E-04,  avg # of iterations =  3.5

     negative rho (up, down):  6.187E-02 0.000E+00

     total cpu time spent up to now is        2.4 secs

     total energy              =     -33.53037546 Ry
     estimated scf accuracy    <       0.03022252 Ry

     iteration #  7     ecut=    20.00 Ry     beta= 0.70
     Davidson diagonalization with overlap
     ethr =  1.89E-04,  avg # of iterations =  6.5

     negative rho (up, down):  8.916E-02 0.000E+00

     total cpu time spent up to now is       29.6 secs

     total energy              =     -33.52922906 Ry
     estimated scf accuracy    <       0.00385602 Ry

     iteration #  8     ecut=    20.00 Ry     beta= 0.70
     Davidson diagonalization with overlap
     c_bands:  1 eigenvalues not converged
     ethr =  2.41E-05,  avg # of iterations = 11.1

     negative rho (up, down):  8.158E-02 0.000E+00

     total cpu time spent up to now is       30.0 secs

     total energy              =     -33.52949135 Ry
     estimated scf accuracy    <       0.00057310 Ry

     iteration #  9     ecut=    20.00 Ry     beta= 0.70
     Davidson diagonalization with overlap
     c_bands:  1 eigenvalues not converged
     ethr =  3.58E-06,  avg # of iterations =  9.4

     negative rho (up, down):  8.124E-02 0.000E+00

     total cpu time spent up to now is       30.3 secs

     total energy              =     -33.52954909 Ry
     estimated scf accuracy    <       0.00000789 Ry

     iteration # 10     ecut=    20.00 Ry     beta= 0.70
     Davidson diagonalization with overlap
     ethr =  4.93E-08,  avg # of iterations =  3.9

     negative rho (up, down):  8.084E-02 0.000E+00

     total cpu time spent up to now is       30.4 secs

     total energy              =     -33.52955330 Ry
     estimated scf accuracy    <       0.00000094 Ry

     iteration # 11     ecut=    20.00 Ry     beta= 0.70
     Davidson diagonalization with overlap
     ethr =  5.87E-09,  avg # of iterations =  3.1

     negative rho (up, down):  8.094E-02 0.000E+00

     total cpu time spent up to now is       30.6 secs

     total energy              =     -33.52955383 Ry
     estimated scf accuracy    <       0.00000019 Ry

     iteration # 12     ecut=    20.00 Ry     beta= 0.70
     Davidson diagonalization with overlap
     ethr =  1.18E-09,  avg # of iterations =  1.7

     negative rho (up, down):  8.094E-02 0.000E+00

     total cpu time spent up to now is       30.7 secs

     End of self-consistent calculation

          k = 0.0000 0.0000 0.0000 (   815 PWs)   bands (ev):

   -31.4225 -23.6663 -23.6663 -15.6707 -10.0326 -10.0326  -5.8837   2.2045
     2.4034   3.6261   4.4679   5.0030

          k = 0.0000 0.0722 0.0000 (   817 PWs)   bands (ev):

   -31.3840 -23.9093 -23.7417 -15.5977  -9.8871  -9.6940  -5.7045   2.3324
     2.5319   3.7414   4.6026   5.1223

          k = 0.0000 0.1443 0.0000 (   821 PWs)   bands (ev):

   -31.2956 -24.3135 -23.9462 -15.3251  -9.5149  -8.6533  -5.5683   2.7020
     2.9155   3.9989   4.5389   5.2680

          k = 0.0000 0.2165 0.0000 (   822 PWs)   bands (ev):

   -31.2650 -24.7945 -24.3401 -14.7836  -8.7500  -7.0709  -5.2598   2.6946
     3.3250   3.5744   4.5094   5.4104

          k = 0.0000 0.2887 0.0000 (   796 PWs)   bands (ev):

   -31.0780 -25.2168 -24.3178 -13.9971  -7.3083  -4.7506  -4.7088   0.4960
     4.1294   4.4543   4.6825   5.5740

          k = 0.0000 0.3608 0.0000 (   798 PWs)   bands (ev):

   -30.9566 -25.8151 -24.6209 -12.9995  -6.7042  -4.4604  -2.3014  -1.6103
     3.8124   4.0767   5.4252   5.6286

          k = 0.0000 0.4330 0.0000 (   808 PWs)   bands (ev):

   -30.8944 -26.3491 -25.0866 -11.8057  -6.2220  -5.0515  -2.4892   0.0240
     2.0736   3.4720   6.4572   6.7809

          k = 0.0000 0.5052 0.0000 (   806 PWs)   bands (ev):

   -30.8207 -26.6682 -25.3435 -10.3608  -7.0065  -5.1793  -2.0055   0.6949
     1.9700   3.1022   5.2603   8.3950

          k = 0.0000-0.5774 0.0000 (   806 PWs)   bands (ev):

   -30.7757 -26.7062 -25.4500  -9.0422  -8.4190  -5.0144  -1.7267   0.0362
     3.0253   3.8626   4.0374  10.1182

          k = 0.0625 0.1083 0.0000 (   817 PWs)   bands (ev):

   -31.3183 -24.2040 -23.8730 -15.4102  -9.6422  -8.9864  -5.5252   2.5830
     2.7892   3.9504   4.7843   5.2922

          k = 0.0625 0.1804 0.0000 (   822 PWs)   bands (ev):

   -31.2559 -24.7700 -24.1672 -14.9895  -9.1900  -7.6821  -5.2695   3.0810
     3.2930   3.8823   4.3695   5.1163

          k = 0.0625 0.2526 0.0000 (   808 PWs)   bands (ev):

   -31.1746 -25.3235 -24.1752 -14.3254  -8.1089  -5.5932  -4.9081   1.6718
     3.8037   4.0751   4.3411   5.3056

          k = 0.0625 0.3248 0.0000 (   808 PWs)   bands (ev):

   -31.0490 -25.9161 -24.3868 -13.4638  -7.1365  -4.6123  -3.3027  -0.6973
     3.5169   4.3987   4.8770   5.1123

          k = 0.0625 0.3969 0.0000 (   803 PWs)   bands (ev):

   -30.8916 -26.3289 -24.6452 -12.3495  -6.4135  -4.6133  -2.2843  -0.9207
     2.6391   3.0885   6.0986   6.3886

          k = 0.0625 0.4691 0.0000 (   802 PWs)   bands (ev):

   -30.7807 -26.7786 -24.9226 -10.9994  -6.2688  -5.2821  -2.3142   0.8275
     1.3802   2.7214   6.7112   7.7227

          k = 0.0625 0.5413 0.0000 (   806 PWs)   bands (ev):

   -30.7420 -27.0401 -25.0748  -9.5311  -7.7584  -5.0616  -1.9008  -0.0365
     1.8380   3.6119   5.6087   9.3893

          k = 0.1250 0.2165 0.0000 (   811 PWs)   bands (ev):

   -31.1938 -25.3827 -24.0395 -14.4323  -8.4279  -5.8016  -4.9571   2.8128
     3.3789   3.7521   3.9667   5.0954

          k = 0.1250 0.2887 0.0000 (   809 PWs)   bands (ev):

   -31.0932 -26.0957 -24.1035 -13.6626  -7.7027  -4.6360  -3.6589   0.6507
     2.4151   4.5799   4.6603   4.8557

          k = 0.1250 0.3608 0.0000 (   802 PWs)   bands (ev):

   -30.9554 -26.6590 -24.2216 -12.6497  -6.7829  -4.3508  -1.6246  -1.1599
     1.8020   3.1038   5.7163   6.0060

          k = 0.1250 0.4330 0.0000 (   797 PWs)   bands (ev):

   -30.7723 -27.0649 -24.3331 -11.4075  -6.0345  -4.7477  -2.3323   0.0911
     1.6567   1.9964   7.0074   7.4085

          k = 0.1250 0.5052 0.0000 (   795 PWs)   bands (ev):

   -30.6212 -27.4888 -24.4382 -10.0049  -6.6833  -5.0433  -2.0371  -0.4232
     0.7751   3.8200   7.3687   8.8919

          k = 0.1250 0.5774 0.0000 (   798 PWs)   bands (ev):

   -30.5364 -27.6429 -24.4714  -8.7434  -8.0891  -4.8342  -1.7727  -1.0729
     0.5607   5.2792   6.4537  10.6272

          k = 0.1875 0.3248 0.0000 (   809 PWs)   bands (ev):

   -30.9513 -26.7995 -24.0142 -12.8027  -6.9146  -4.3391  -1.4051  -0.6640
     0.7016   3.2494   5.5831   5.8765

          k = 0.1875 0.3969 0.0000 (   793 PWs)   bands (ev):

   -30.7359 -27.3962 -24.0039 -11.6111  -6.1715  -3.9185  -2.2161  -0.7946
     1.3810   2.1685   6.8123   7.1555

          k = 0.1875 0.4691 0.0000 (   790 PWs)   bands (ev):

   -30.5008 -27.8442 -23.9695 -10.3177  -5.6711  -4.8796  -2.6189  -1.1167
     0.4503   3.8129   8.0558   8.6770

          k = 0.1875 0.5413 0.0000 (   798 PWs)   bands (ev):

   -30.3497 -28.2355 -24.0339  -8.8823  -7.1221  -4.6544  -2.5321  -1.6184
    -0.4847   5.5535   7.7928  10.2502

          k = 0.2500 0.4330 0.0000 (   799 PWs)   bands (ev):

   -30.5281 -28.1102 -23.8526 -10.4331  -5.5605  -4.0919  -3.5460  -1.4927
     0.2343   3.5777   8.0638   8.5552

          k = 0.2500 0.5052 0.0000 (   792 PWs)   bands (ev):

   -30.1561 -28.5337 -23.7265  -9.0512  -5.7472  -4.4981  -3.9834  -1.6354
    -0.8623   5.5707   8.9356  10.1536

          k = 0.2500 0.5774 0.0000 (   794 PWs)   bands (ev):

   -29.9703 -28.8402 -23.7150  -7.7677  -7.1591  -4.1788  -4.0307  -1.6112
    -1.5323   6.8466   8.3971  11.2003

          k = 0.3125 0.5413 0.0000 (   791 PWs)   bands (ev):

   -29.7372 -29.0467 -23.5557  -7.6371  -5.9692  -5.6887  -3.4090  -2.2153
    -1.5549   7.2653   9.2845  10.2419

     the Fermi energy is     0.7722 ev

!    total energy              =     -33.52955382 Ry
     estimated scf accuracy    <          3.9E-09 Ry
     smearing contrib. (-TS)   =      -0.00047866 Ry
     internal energy E=F+TS    =     -33.52907517 Ry

     The total energy is F=E-TS. E is the sum of the following terms:
     one-electron contribution =    -612.96897566 Ry
     hartree contribution      =     309.46176778 Ry
     xc contribution           =     -19.34345723 Ry
     ewald contribution        =     289.32158995 Ry

     convergence has been achieved in  12 iterations

     negative rho (up, down):  8.094E-02 0.000E+00

     Forces acting on atoms (cartesian axes, Ry/au):

     atom    1 type  1   force =     0.00000000    0.00000000  -28.25097876
     atom    2 type  1   force =     0.00000000   -0.00000000   -0.59503398
     atom    3 type  1   force =     0.00000000   -0.00000000    0.59218998
     atom    4 type  1   force =     0.00000000   -0.00000000   28.25382277

     Total force =    39.963747     Total SCF correction =     0.000191


     Computing stress (Cartesian axis) and pressure


     negative rho (up, down):  8.094E-02 0.000E+00
          total   stress  (Ry/bohr**3)                   (kbar)     P=     1704.96
  -0.00207454   0.00000000   0.00000000         -305.18        0.00        0.00
   0.00000000  -0.00207454   0.00000000            0.00     -305.18        0.00
   0.00000000   0.00000000   0.03891931            0.00        0.00     5725.23


     Writing all to output data dir /home/rfa/Skripsi/DFT/dft-graphene/tmp/gr-ab-2L.save/ :
     XML data file, charge density, pseudopotentials, collected wavefunctions

     init_run     :      0.22s CPU      0.21s WALL (       1 calls)
     electrons    :      5.95s CPU     30.34s WALL (       1 calls)
     forces       :      0.01s CPU      0.01s WALL (       1 calls)
     stress       :      0.03s CPU      0.03s WALL (       1 calls)

     Called by init_run:
     wfcinit      :      0.13s CPU      0.08s WALL (       1 calls)
     potinit      :      0.01s CPU      0.01s WALL (       1 calls)
     hinit0       :      0.08s CPU      0.12s WALL (       1 calls)

     Called by electrons:
     c_bands      :      5.49s CPU     29.94s WALL (      12 calls)
     sum_band     :      0.39s CPU      0.31s WALL (      12 calls)
     v_of_rho     :      0.03s CPU      0.04s WALL (      13 calls)
     newd         :      0.02s CPU      0.03s WALL (      13 calls)
     mix_rho      :      0.01s CPU      0.01s WALL (      12 calls)

     Called by c_bands:
     init_us_2    :      0.08s CPU      0.05s WALL (     810 calls)
     cegterg      :      5.17s CPU     29.73s WALL (     360 calls)

     Called by *egterg:
     cdiaghg      :      1.21s CPU      0.67s WALL (    2102 calls)
     h_psi        :      3.32s CPU     28.68s WALL (    2132 calls)
     s_psi        :      0.06s CPU      0.04s WALL (    2132 calls)
     g_psi        :      0.02s CPU      0.02s WALL (    1742 calls)

     Called by h_psi:
     h_psi:calbec :      0.35s CPU      0.19s WALL (    2132 calls)
     vloc_psi     :      2.82s CPU     28.39s WALL (    2132 calls)
     add_vuspsi   :      0.09s CPU      0.05s WALL (    2132 calls)

     General routines
     calbec       :      0.38s CPU      0.23s WALL (    3002 calls)
     fft          :      0.06s CPU      0.10s WALL (     168 calls)
     ffts         :      0.00s CPU      0.00s WALL (      12 calls)
     fftw         :      2.69s CPU     28.35s WALL (   30558 calls)

     Parallel routines

     PWSCF        :      6.33s CPU     30.83s WALL


   This run was terminated on:  14:55:27  16Apr2025            

=------------------------------------------------------------------------------=
   JOB DONE.
=------------------------------------------------------------------------------=
