
     Program PWSCF v.7.4.1 starts on 18Mar2025 at 14:29: 7 

     This program is part of the open-source Quantum ESPRESSO suite
     for quantum simulation of materials; please cite
         "P. Giannozzi et al., J. Phys.:Condens. Matter 21 395502 (2009);
         "P. Giannozzi et al., J. Phys.:Condens. Matter 29 465901 (2017);
         "P. Giannozzi et al., J. Chem. Phys. 152 154105 (2020);
          URL http://www.quantum-espresso.org", 
     in publications or presentations arising from this work. More details at
     http://www.quantum-espresso.org/quote

     Parallel version (MPI), running on     7 processors

     MPI processes distributed on     1 nodes
     4606 MiB available memory on the printing compute node when the environment starts

     Waiting for input...
     Reading input from standard input

     Current dimensions of program PWSCF are:
     Max number of different atomic species (ntypx) = 10
     Max number of k-points (npk) =  40000
     Max angular momentum in pseudopotentials (lmaxx) =  4

     R & G space division:  proc/nbgrp/npool/nimage =       7
     Subspace diagonalization in iterative solution of the eigenvalue problem:
     a serial algorithm will be used


     Parallelization info
     --------------------
     sticks:   dense  smooth     PW     G-vecs:    dense   smooth      PW
     Min          51      51     15                 4783     4783     805
     Max          52      52     16                 4800     4800     826
     Sum         361     361    109                33523    33523    5717

     Using Slab Decomposition



     bravais-lattice index     =            4
     lattice parameter (alat)  =       4.6561  a.u.
     unit-cell volume          =     532.1899 (a.u.)^3
     number of atoms/cell      =            4
     number of atomic types    =            1
     number of electrons       =        16.00
     number of Kohn-Sham states=           12
     kinetic-energy cutoff     =      60.0000  Ry
     charge density cutoff     =     240.0000  Ry
     scf convergence threshold =      1.0E-08
     mixing beta               =       0.7000
     number of iterations used =            8  plain     mixing
     Exchange-correlation= PBE
                           (   1   4   3   4   0   0   0)

     celldm(1)=   4.656107  celldm(2)=   0.000000  celldm(3)=   6.087896
     celldm(4)=   0.000000  celldm(5)=   0.000000  celldm(6)=   0.000000

     crystal axes: (cart. coord. in units of alat)
               a(1) = (   1.000000   0.000000   0.000000 )  
               a(2) = (  -0.500000   0.866025   0.000000 )  
               a(3) = (   0.000000   0.000000   6.087896 )  

     reciprocal axes: (cart. coord. in units 2 pi/alat)
               b(1) = (  1.000000  0.577350 -0.000000 )  
               b(2) = (  0.000000  1.154701  0.000000 )  
               b(3) = (  0.000000 -0.000000  0.164260 )  


     PseudoPot. # 1 for C  read from file:
     /run/media/rfa/SATA/Skripsi/DFT/Graphene-copy/pseudo/C.pbe-n-rrkjus_psl.0.1.UPF
     MD5 check sum: 96a6a315177d77e6c95bf6fd3870f9e3
     Pseudo is Ultrasoft + core correction, Zval =  4.0
     Generated using &quot;atomic&quot; code by A. Dal Corso  v.6.3MaX
     Using radial grid of 1073 points,  4 beta functions with: 
                l(1) =   0
                l(2) =   0
                l(3) =   1
                l(4) =   1
     Q(r) pseudized with 0 coefficients 


     atomic species   valence    mass     pseudopotential
     C                 4.00    12.01070     C ( 1.00)

      6 Sym. Ops. (no inversion) found



   Cartesian axes

     site n.     atom                  positions (alat units)
         1        C      tau(   1) = (   0.0000000   0.5773503   3.0439478  )
         2        C      tau(   2) = (   0.5000000   0.2886751   3.0439478  )
         3        C      tau(   3) = (   0.0000000   0.0000000   3.2468777  )
         4        C      tau(   4) = (   0.0000000   0.5773503   3.2468777  )

     number of k points=    10  Marzari-Vanderbilt smearing, width (Ry)=  0.0200
                       cart. coord. in units 2pi/alat
        k(    1) = (   0.0000000   0.0000000   0.0000000), wk =   0.0312500
        k(    2) = (   0.0000000   0.1443376   0.0000000), wk =   0.1875000
        k(    3) = (   0.0000000   0.2886751   0.0000000), wk =   0.1875000
        k(    4) = (   0.0000000   0.4330127   0.0000000), wk =   0.1875000
        k(    5) = (   0.0000000  -0.5773503   0.0000000), wk =   0.0937500
        k(    6) = (   0.1250000   0.2165064   0.0000000), wk =   0.1875000
        k(    7) = (   0.1250000   0.3608439   0.0000000), wk =   0.3750000
        k(    8) = (   0.1250000   0.5051815   0.0000000), wk =   0.3750000
        k(    9) = (   0.2500000   0.4330127   0.0000000), wk =   0.1875000
        k(   10) = (   0.2500000   0.5773503   0.0000000), wk =   0.1875000

     Dense  grid:    33523 G-vectors     FFT dimensions: (  24,  24, 144)

     Estimated max dynamical RAM per process >       8.57 MB

     Estimated total dynamical RAM >      60.02 MB

     Check: negative core charge=   -0.000004

     Initial potential from superposition of free atoms

     starting charge      15.9998, renormalised to      16.0000

     negative rho (up, down):  1.215E-04 0.000E+00
     Starting wfcs are   16 randomized atomic wfcs

     total cpu time spent up to now is        0.8 secs

     per-process dynamical memory:    11.0 Mb

     Self-consistent Calculation

     iteration #  1     ecut=    60.00 Ry     beta= 0.70
     Davidson diagonalization with overlap
     ethr =  1.00E-02,  avg # of iterations =  7.2

     negative rho (up, down):  8.213E-04 0.000E+00

     total cpu time spent up to now is        1.1 secs

     total energy              =     -32.67373585 Ry
     estimated scf accuracy    <       6.73760643 Ry

     iteration #  2     ecut=    60.00 Ry     beta= 0.70
     Davidson diagonalization with overlap
     ethr =  1.00E-02,  avg # of iterations =  5.6

     negative rho (up, down):  2.580E-04 0.000E+00

     total cpu time spent up to now is        1.4 secs

     total energy              =     -34.50969656 Ry
     estimated scf accuracy    <       4.72691305 Ry

     iteration #  3     ecut=    60.00 Ry     beta= 0.70
     Davidson diagonalization with overlap
     ethr =  1.00E-02,  avg # of iterations =  2.9

     negative rho (up, down):  3.522E-04 0.000E+00

     total cpu time spent up to now is        1.6 secs

     total energy              =     -35.24768973 Ry
     estimated scf accuracy    <       0.11204482 Ry

     iteration #  4     ecut=    60.00 Ry     beta= 0.70
     Davidson diagonalization with overlap
     c_bands:  1 eigenvalues not converged
     ethr =  7.00E-04,  avg # of iterations = 10.1

     negative rho (up, down):  4.616E-04 0.000E+00

     total cpu time spent up to now is        2.0 secs

     total energy              =     -35.50271692 Ry
     estimated scf accuracy    <       0.09786448 Ry

     iteration #  5     ecut=    60.00 Ry     beta= 0.70
     Davidson diagonalization with overlap
     ethr =  6.12E-04,  avg # of iterations =  4.9

     negative rho (up, down):  6.957E-04 0.000E+00

     total cpu time spent up to now is        2.2 secs

     total energy              =     -35.49466993 Ry
     estimated scf accuracy    <       0.02920346 Ry

     iteration #  6     ecut=    60.00 Ry     beta= 0.70
     Davidson diagonalization with overlap
     c_bands:  1 eigenvalues not converged
     ethr =  1.83E-04,  avg # of iterations = 10.6

     negative rho (up, down):  8.061E-04 0.000E+00

     total cpu time spent up to now is        2.5 secs

     total energy              =     -35.50874673 Ry
     estimated scf accuracy    <       0.00354537 Ry

     iteration #  7     ecut=    60.00 Ry     beta= 0.70
     Davidson diagonalization with overlap
     c_bands:  2 eigenvalues not converged
     c_bands:  1 eigenvalues not converged
     c_bands:  2 eigenvalues not converged
     ethr =  2.22E-05,  avg # of iterations = 15.3

     negative rho (up, down):  8.055E-04 0.000E+00

     total cpu time spent up to now is        3.0 secs

     total energy              =     -35.51097663 Ry
     estimated scf accuracy    <       0.00893368 Ry

     iteration #  8     ecut=    60.00 Ry     beta= 0.70
     Davidson diagonalization with overlap
     c_bands:  1 eigenvalues not converged
     ethr =  2.22E-05,  avg # of iterations =  4.8

     negative rho (up, down):  8.372E-04 0.000E+00

     total cpu time spent up to now is        3.2 secs

     total energy              =     -35.51016830 Ry
     estimated scf accuracy    <       0.00413396 Ry

     iteration #  9     ecut=    60.00 Ry     beta= 0.70
     Davidson diagonalization with overlap
     ethr =  2.22E-05,  avg # of iterations =  1.7

     negative rho (up, down):  8.716E-04 0.000E+00

     total cpu time spent up to now is        3.4 secs

     total energy              =     -35.51006302 Ry
     estimated scf accuracy    <       0.00107885 Ry

     iteration # 10     ecut=    60.00 Ry     beta= 0.70
     Davidson diagonalization with overlap
     ethr =  6.74E-06,  avg # of iterations =  7.8

     negative rho (up, down):  8.657E-04 0.000E+00

     total cpu time spent up to now is        3.6 secs

     total energy              =     -35.51049077 Ry
     estimated scf accuracy    <       0.00000969 Ry

     iteration # 11     ecut=    60.00 Ry     beta= 0.70
     Davidson diagonalization with overlap
     c_bands:  2 eigenvalues not converged
     c_bands:  3 eigenvalues not converged
     ethr =  6.06E-08,  avg # of iterations = 19.4

     negative rho (up, down):  8.555E-04 0.000E+00

     total cpu time spent up to now is        4.5 secs

     total energy              =     -35.51065814 Ry
     estimated scf accuracy    <       0.00009204 Ry

     iteration # 12     ecut=    60.00 Ry     beta= 0.70
     Davidson diagonalization with overlap
     ethr =  6.06E-08,  avg # of iterations =  4.9

     negative rho (up, down):  8.386E-04 0.000E+00

     total cpu time spent up to now is        4.7 secs

     total energy              =     -35.51065949 Ry
     estimated scf accuracy    <       0.00000984 Ry

     iteration # 13     ecut=    60.00 Ry     beta= 0.70
     Davidson diagonalization with overlap
     ethr =  6.06E-08,  avg # of iterations =  6.8

     negative rho (up, down):  8.475E-04 0.000E+00

     total cpu time spent up to now is        5.0 secs

     total energy              =     -35.51065710 Ry
     estimated scf accuracy    <       0.00005955 Ry

     iteration # 14     ecut=    60.00 Ry     beta= 0.70
     Davidson diagonalization with overlap
     ethr =  6.06E-08,  avg # of iterations =  5.0

     negative rho (up, down):  8.489E-04 0.000E+00

     total cpu time spent up to now is        5.2 secs

     total energy              =     -35.51066574 Ry
     estimated scf accuracy    <       0.00000094 Ry

     iteration # 15     ecut=    60.00 Ry     beta= 0.70
     Davidson diagonalization with overlap
     ethr =  5.90E-09,  avg # of iterations =  5.6

     negative rho (up, down):  8.476E-04 0.000E+00

     total cpu time spent up to now is        5.4 secs

     total energy              =     -35.51066709 Ry
     estimated scf accuracy    <       0.00000015 Ry

     iteration # 16     ecut=    60.00 Ry     beta= 0.70
     Davidson diagonalization with overlap
     ethr =  9.20E-10,  avg # of iterations =  4.4

     negative rho (up, down):  8.477E-04 0.000E+00

     total cpu time spent up to now is        5.7 secs

     total energy              =     -35.51066719 Ry
     estimated scf accuracy    <       0.00000006 Ry

     iteration # 17     ecut=    60.00 Ry     beta= 0.70
     Davidson diagonalization with overlap
     ethr =  3.57E-10,  avg # of iterations =  3.4

     negative rho (up, down):  8.479E-04 0.000E+00

     total cpu time spent up to now is        5.9 secs

     total energy              =     -35.51066720 Ry
     estimated scf accuracy    <       0.00000002 Ry

     iteration # 18     ecut=    60.00 Ry     beta= 0.70
     Davidson diagonalization with overlap
     ethr =  1.00E-10,  avg # of iterations =  5.7

     negative rho (up, down):  8.479E-04 0.000E+00

     total cpu time spent up to now is        6.1 secs

     End of self-consistent calculation

          k = 0.0000 0.0000 0.0000 (  4149 PWs)   bands (ev):

   -29.6119 -21.9300 -21.9300 -16.6460  -9.3133  -9.3133  -4.8901   3.5575
     3.8688   4.1866   4.9318   5.8237

          k = 0.0000 0.1443 0.0000 (  4192 PWs)   bands (ev):

   -29.5808 -22.5115 -22.2326 -16.2400  -8.7557  -7.9727  -4.6006   2.4393
     4.3211   4.3450   5.0199   5.8571

          k = 0.0000 0.2887 0.0000 (  4186 PWs)   bands (ev):

   -29.5010 -23.6449 -22.9187 -15.0068  -7.2541  -4.6549  -3.9359  -1.0085
     3.5799   5.8419   5.9247   6.4685

          k = 0.0000 0.4330 0.0000 (  4186 PWs)   bands (ev):

   -29.4130 -24.5482 -23.5521 -13.0575  -5.8647  -4.8710  -1.8991  -0.5105
     2.0322   2.8320   6.0921   8.2510

          k = 0.0000-0.5774 0.0000 (  4184 PWs)   bands (ev):

   -29.3738 -24.8779 -23.8020 -11.4606  -7.8601  -3.4990  -0.6361   0.1561
     1.1440   2.7901   3.9894  10.8654

          k = 0.1250 0.2165 0.0000 (  4163 PWs)   bands (ev):

   -29.5164 -23.5896 -22.4595 -15.4183  -7.8504  -5.5779  -4.0703   0.1586
     3.3598   5.3505   5.3789   6.4523

          k = 0.1250 0.3608 0.0000 (  4180 PWs)   bands (ev):

   -29.3759 -24.9584 -22.6810 -13.8087  -6.2485  -3.9610  -2.4879  -1.7584
     1.3762   3.9898   7.2357   7.3960

          k = 0.1250 0.5052 0.0000 (  4183 PWs)   bands (ev):

   -29.2149 -25.8604 -22.8278 -11.7477  -6.8831  -4.1699  -1.7001  -0.4174
     0.7037   2.8705   6.6807  10.1014

          k = 0.2500 0.4330 0.0000 (  4156 PWs)   bands (ev):

   -29.0144 -26.4963 -22.2342 -11.9773  -5.2246  -4.7270  -3.7647  -0.8425
     0.9358   3.0903   9.1449   9.9215

          k = 0.2500 0.5774 0.0000 (  4160 PWs)   bands (ev):

   -28.6258 -27.3282 -22.0505 -10.5810  -6.6635  -4.2883  -3.3821  -1.4370
    -0.5322   6.6490   7.9201  11.4681

     the Fermi energy is     0.4588 ev

!    total energy              =     -35.51066722 Ry
     estimated scf accuracy    <          3.9E-10 Ry
     smearing contrib. (-TS)   =       0.00040747 Ry
     internal energy E=F+TS    =     -35.51107469 Ry

     The total energy is F=E-TS. E is the sum of the following terms:
     one-electron contribution =    -617.24292269 Ry
     hartree contribution      =     312.06996414 Ry
     xc contribution           =     -19.65970608 Ry
     ewald contribution        =     289.32158995 Ry

     convergence has been achieved in  18 iterations

     negative rho (up, down):  8.479E-04 0.000E+00

     Forces acting on atoms (cartesian axes, Ry/au):

     atom    1 type  1   force =     0.00000000   -0.00000000  -24.04170725
     atom    2 type  1   force =     0.00000000    0.00000000   -0.41108982
     atom    3 type  1   force =     0.00000000   -0.00000000    0.41105974
     atom    4 type  1   force =     0.00000000    0.00000000   24.04173734

     Total force =    34.005099     Total SCF correction =     0.000035


     Computing stress (Cartesian axis) and pressure


     negative rho (up, down):  8.479E-04 0.000E+00
          total   stress  (Ry/bohr**3)                   (kbar)     P=     2860.17
   0.00753151   0.00000000   0.00000000         1107.92        0.00        0.00
   0.00000000   0.00753151   0.00000000            0.00     1107.92        0.00
   0.00000000   0.00000000   0.04326607            0.00        0.00     6364.66


     Writing all to output data dir /run/media/rfa/SATA/Skripsi/DFT/Graphene-copy/tmp/gr-ab-2L.save/ :
     XML data file, charge density, pseudopotentials, collected wavefunctions

     init_run     :      0.46s CPU      0.72s WALL (       1 calls)
     electrons    :      9.55s CPU      5.35s WALL (       1 calls)
     forces       :      0.04s CPU      0.03s WALL (       1 calls)
     stress       :      0.12s CPU      0.08s WALL (       1 calls)

     Called by init_run:
     wfcinit      :      0.12s CPU      0.06s WALL (       1 calls)
     potinit      :      0.01s CPU      0.01s WALL (       1 calls)
     hinit0       :      0.31s CPU      0.62s WALL (       1 calls)

     Called by electrons:
     c_bands      :      8.21s CPU      4.52s WALL (      18 calls)
     sum_band     :      0.99s CPU      0.55s WALL (      18 calls)
     v_of_rho     :      0.11s CPU      0.11s WALL (      19 calls)
     newd         :      0.13s CPU      0.12s WALL (      19 calls)
     mix_rho      :      0.09s CPU      0.05s WALL (      18 calls)

     Called by c_bands:
     init_us_2    :      0.12s CPU      0.07s WALL (     390 calls)
     cegterg      :      8.01s CPU      4.41s WALL (     182 calls)

     Called by *egterg:
     cdiaghg      :      0.54s CPU      0.30s WALL (    1443 calls)
     h_psi        :      6.02s CPU      3.35s WALL (    1453 calls)
     s_psi        :      0.19s CPU      0.10s WALL (    1453 calls)
     g_psi        :      0.06s CPU      0.03s WALL (    1261 calls)

     Called by h_psi:
     h_psi:calbec :      0.64s CPU      0.34s WALL (    1453 calls)
     vloc_psi     :      5.06s CPU      2.82s WALL (    1453 calls)
     add_vuspsi   :      0.25s CPU      0.14s WALL (    1453 calls)

     General routines
     calbec       :      0.73s CPU      0.39s WALL (    1803 calls)
     fft          :      0.34s CPU      0.65s WALL (     234 calls)
     ffts         :      0.01s CPU      0.00s WALL (      18 calls)
     fftw         :      4.79s CPU      2.68s WALL (   20972 calls)

     Parallel routines

     PWSCF        :     10.21s CPU      6.25s WALL


   This run was terminated on:  14:29:13  18Mar2025            

=------------------------------------------------------------------------------=
   JOB DONE.
=------------------------------------------------------------------------------=
