
     Program PWSCF v.7.4.1 starts on 16Apr2025 at 14:54:46 

     This program is part of the open-source Quantum ESPRESSO suite
     for quantum simulation of materials; please cite
         "P. Giannozzi et al., J. Phys.:Condens. Matter 21 395502 (2009);
         "P. Giannozzi et al., J. Phys.:Condens. Matter 29 465901 (2017);
         "P. Giannozzi et al., J. Chem. Phys. 152 154105 (2020);
          URL http://www.quantum-espresso.org", 
     in publications or presentations arising from this work. More details at
     http://www.quantum-espresso.org/quote

     Parallel version (MPI), running on     7 processors

     MPI processes distributed on     1 nodes
     13290 MiB available memory on the printing compute node when the environment starts

     Waiting for input...
     Reading input from standard input

     Current dimensions of program PWSCF are:
     Max number of different atomic species (ntypx) = 10
     Max number of k-points (npk) =  40000
     Max angular momentum in pseudopotentials (lmaxx) =  4

     R & G space division:  proc/nbgrp/npool/nimage =       7
     Subspace diagonalization in iterative solution of the eigenvalue problem:
     a serial algorithm will be used


     Parallelization info
     --------------------
     sticks:   dense  smooth     PW     G-vecs:    dense   smooth      PW
     Min          17      17      5                  919      919     181
     Max          18      18      6                  934      934     204
     Sum         121     121     37                 6489     6489    1321

     Using Slab Decomposition



     bravais-lattice index     =            4
     lattice parameter (alat)  =       4.6561  a.u.
     unit-cell volume          =     532.1899 (a.u.)^3
     number of atoms/cell      =            4
     number of atomic types    =            1
     number of electrons       =        16.00
     number of Kohn-Sham states=           12
     kinetic-energy cutoff     =      20.0000  Ry
     charge density cutoff     =      80.0000  Ry
     scf convergence threshold =      1.0E-08
     mixing beta               =       0.7000
     number of iterations used =            8  plain     mixing
     Exchange-correlation= PBE
                           (   1   4   3   4   0   0   0)

     celldm(1)=   4.656107  celldm(2)=   0.000000  celldm(3)=   6.087896
     celldm(4)=   0.000000  celldm(5)=   0.000000  celldm(6)=   0.000000

     crystal axes: (cart. coord. in units of alat)
               a(1) = (   1.000000   0.000000   0.000000 )  
               a(2) = (  -0.500000   0.866025   0.000000 )  
               a(3) = (   0.000000   0.000000   6.087896 )  

     reciprocal axes: (cart. coord. in units 2 pi/alat)
               b(1) = (  1.000000  0.577350 -0.000000 )  
               b(2) = (  0.000000  1.154701  0.000000 )  
               b(3) = (  0.000000 -0.000000  0.164260 )  


     PseudoPot. # 1 for C  read from file:
     /home/rfa/Skripsi/DFT/dft-graphene/pseudo/C.pbe-n-rrkjus_psl.0.1.UPF
     MD5 check sum: 96a6a315177d77e6c95bf6fd3870f9e3
     Pseudo is Ultrasoft + core correction, Zval =  4.0
     Generated using &quot;atomic&quot; code by A. Dal Corso  v.6.3MaX
     Using radial grid of 1073 points,  4 beta functions with: 
                l(1) =   0
                l(2) =   0
                l(3) =   1
                l(4) =   1
     Q(r) pseudized with 0 coefficients 


     atomic species   valence    mass     pseudopotential
     C                 4.00    12.01070     C ( 1.00)

      6 Sym. Ops. (no inversion) found



   Cartesian axes

     site n.     atom                  positions (alat units)
         1        C      tau(   1) = (   0.0000000   0.5773503   3.0439478  )
         2        C      tau(   2) = (   0.5000000   0.2886751   3.0439478  )
         3        C      tau(   3) = (   0.0000000   0.0000000   3.2468777  )
         4        C      tau(   4) = (   0.0000000   0.5773503   3.2468777  )

     number of k points=     7  Marzari-Vanderbilt smearing, width (Ry)=  0.0200
                       cart. coord. in units 2pi/alat
        k(    1) = (   0.0000000   0.0000000   0.0000000), wk =   0.0555556
        k(    2) = (   0.0000000   0.1924501   0.0000000), wk =   0.3333333
        k(    3) = (   0.0000000   0.3849002   0.0000000), wk =   0.3333333
        k(    4) = (   0.0000000  -0.5773503   0.0000000), wk =   0.1666667
        k(    5) = (   0.1666667   0.2886751   0.0000000), wk =   0.3333333
        k(    6) = (   0.1666667   0.4811252   0.0000000), wk =   0.6666667
        k(    7) = (   0.3333333   0.5773503   0.0000000), wk =   0.1111111

     Dense  grid:     6489 G-vectors     FFT dimensions: (  15,  15,  81)

     Estimated max dynamical RAM per process >       1.76 MB

     Estimated total dynamical RAM >      12.31 MB

     Check: negative core charge=   -0.000310

     Initial potential from superposition of free atoms

     starting charge      15.9998, renormalised to      16.0000

     negative rho (up, down):  1.235E-02 0.000E+00
     Starting wfcs are   16 randomized atomic wfcs

     total cpu time spent up to now is        0.2 secs

     per-process dynamical memory:     7.7 Mb

     Self-consistent Calculation

     iteration #  1     ecut=    20.00 Ry     beta= 0.70
     Davidson diagonalization with overlap
     ethr =  1.00E-02,  avg # of iterations =  4.0

     negative rho (up, down):  1.067E-01 0.000E+00

     total cpu time spent up to now is        0.4 secs

     total energy              =     -32.15647314 Ry
     estimated scf accuracy    <       3.60081315 Ry

     iteration #  2     ecut=    20.00 Ry     beta= 0.70
     Davidson diagonalization with overlap
     ethr =  1.00E-02,  avg # of iterations =  4.9

     negative rho (up, down):  3.614E-03 0.000E+00

     total cpu time spent up to now is        0.4 secs

     total energy              =     -31.37152994 Ry
     estimated scf accuracy    <       6.51269939 Ry

     iteration #  3     ecut=    20.00 Ry     beta= 0.70
     Davidson diagonalization with overlap
     ethr =  1.00E-02,  avg # of iterations =  4.3

     negative rho (up, down):  1.078E-02 0.000E+00

     total cpu time spent up to now is        0.5 secs

     total energy              =     -33.60517224 Ry
     estimated scf accuracy    <       0.35212210 Ry

     iteration #  4     ecut=    20.00 Ry     beta= 0.70
     Davidson diagonalization with overlap
     ethr =  2.20E-03,  avg # of iterations =  1.9

     negative rho (up, down):  2.179E-02 0.000E+00

     total cpu time spent up to now is        0.6 secs

     total energy              =     -33.57512455 Ry
     estimated scf accuracy    <       0.14561470 Ry

     iteration #  5     ecut=    20.00 Ry     beta= 0.70
     Davidson diagonalization with overlap
     ethr =  9.10E-04,  avg # of iterations =  1.9

     negative rho (up, down):  3.273E-02 0.000E+00

     total cpu time spent up to now is        0.6 secs

     total energy              =     -33.55225983 Ry
     estimated scf accuracy    <       0.07605393 Ry

     iteration #  6     ecut=    20.00 Ry     beta= 0.70
     Davidson diagonalization with overlap
     ethr =  4.75E-04,  avg # of iterations =  3.4

     negative rho (up, down):  5.759E-02 0.000E+00

     total cpu time spent up to now is        0.7 secs

     total energy              =     -33.52912543 Ry
     estimated scf accuracy    <       0.03831068 Ry

     iteration #  7     ecut=    20.00 Ry     beta= 0.70
     Davidson diagonalization with overlap
     ethr =  2.39E-04,  avg # of iterations =  5.1

     negative rho (up, down):  8.335E-02 0.000E+00

     total cpu time spent up to now is        0.8 secs

     total energy              =     -33.52680652 Ry
     estimated scf accuracy    <       0.00523137 Ry

     iteration #  8     ecut=    20.00 Ry     beta= 0.70
     Davidson diagonalization with overlap
     ethr =  3.27E-05,  avg # of iterations =  9.9

     negative rho (up, down):  8.069E-02 0.000E+00

     total cpu time spent up to now is        0.9 secs

     total energy              =     -33.52749195 Ry
     estimated scf accuracy    <       0.00018984 Ry

     iteration #  9     ecut=    20.00 Ry     beta= 0.70
     Davidson diagonalization with overlap
     ethr =  1.19E-06,  avg # of iterations =  9.4

     negative rho (up, down):  7.933E-02 0.000E+00

     total cpu time spent up to now is        1.0 secs

     total energy              =     -33.52750457 Ry
     estimated scf accuracy    <       0.00004266 Ry

     iteration # 10     ecut=    20.00 Ry     beta= 0.70
     Davidson diagonalization with overlap
     ethr =  2.67E-07,  avg # of iterations =  5.6

     negative rho (up, down):  7.929E-02 0.000E+00

     total cpu time spent up to now is        1.1 secs

     total energy              =     -33.52751153 Ry
     estimated scf accuracy    <       0.00000065 Ry

     iteration # 11     ecut=    20.00 Ry     beta= 0.70
     Davidson diagonalization with overlap
     ethr =  4.09E-09,  avg # of iterations =  4.0

     negative rho (up, down):  7.914E-02 0.000E+00

     total cpu time spent up to now is        1.2 secs

     total energy              =     -33.52751173 Ry
     estimated scf accuracy    <       0.00000034 Ry

     iteration # 12     ecut=    20.00 Ry     beta= 0.70
     Davidson diagonalization with overlap
     ethr =  2.12E-09,  avg # of iterations =  1.9

     negative rho (up, down):  7.913E-02 0.000E+00

     total cpu time spent up to now is        1.2 secs

     total energy              =     -33.52751180 Ry
     estimated scf accuracy    <       0.00000001 Ry

     iteration # 13     ecut=    20.00 Ry     beta= 0.70
     Davidson diagonalization with overlap
     ethr =  7.80E-11,  avg # of iterations =  3.7

     negative rho (up, down):  7.914E-02 0.000E+00

     total cpu time spent up to now is        1.3 secs

     End of self-consistent calculation

          k = 0.0000 0.0000 0.0000 (   815 PWs)   bands (ev):

   -31.4453 -23.6948 -23.6948 -15.6709 -10.0527 -10.0527  -5.8882   2.2207
     2.4200   3.6391   4.4560   4.9980

          k = 0.0000 0.1925 0.0000 (   824 PWs)   bands (ev):

   -31.3129 -24.6803 -24.3668 -14.9832  -9.1191  -7.7192  -5.3469   3.1054
     3.2690   3.4690   4.4183   5.4994

          k = 0.0000 0.3849 0.0000 (   806 PWs)   bands (ev):

   -30.9589 -26.1129 -24.8200 -12.6359  -6.5541  -4.5239  -2.1385  -1.6753
     3.2031   3.8363   5.8600   6.0837

          k = 0.0000-0.5774 0.0000 (   806 PWs)   bands (ev):

   -30.8025 -26.7334 -25.4719  -9.0395  -8.4210  -5.0441  -1.7327   0.0144
     3.0129   3.8359   4.0326  10.1321

          k = 0.1667 0.2887 0.0000 (   809 PWs)   bands (ev):

   -31.0802 -26.3672 -24.0730 -13.4132  -7.5196  -4.5342  -2.9379   0.4208
     1.5354   4.1610   4.9048   5.1706

          k = 0.1667 0.4811 0.0000 (   790 PWs)   bands (ev):

   -30.5533 -27.7655 -24.1087 -10.2376  -5.9357  -5.0192  -2.3685  -0.9008
     0.5022   3.8424   7.9628   8.7746

          k = 0.3333 0.5774 0.0000 (   783 PWs)   bands (ev):

   -29.3688 -29.3687 -23.5352  -6.9121  -6.1824  -6.1801  -2.7809  -2.7804
    -1.5515   7.7265   9.6495   9.6661

     the Fermi energy is     0.5510 ev

!    total energy              =     -33.52751177 Ry
     estimated scf accuracy    <          2.4E-09 Ry
     smearing contrib. (-TS)   =      -0.00236199 Ry
     internal energy E=F+TS    =     -33.52514978 Ry

     The total energy is F=E-TS. E is the sum of the following terms:
     one-electron contribution =    -612.94793208 Ry
     hartree contribution      =     309.44271065 Ry
     xc contribution           =     -19.34151830 Ry
     ewald contribution        =     289.32158995 Ry

     convergence has been achieved in  13 iterations

     negative rho (up, down):  7.914E-02 0.000E+00

     Forces acting on atoms (cartesian axes, Ry/au):

     atom    1 type  1   force =     0.00000000    0.00000000  -28.18394658
     atom    2 type  1   force =     0.00000000   -0.00000000   -0.59806059
     atom    3 type  1   force =    -0.00000000    0.00000000    0.59547497
     atom    4 type  1   force =     0.00000000   -0.00000000   28.18653220

     Total force =    39.868881     Total SCF correction =     0.000048


     Computing stress (Cartesian axis) and pressure


     negative rho (up, down):  7.914E-02 0.000E+00
          total   stress  (Ry/bohr**3)                   (kbar)     P=     1698.10
  -0.00208704   0.00000000   0.00000000         -307.01        0.00        0.00
   0.00000000  -0.00208704   0.00000000            0.00     -307.01        0.00
   0.00000000   0.00000000   0.03880448            0.00        0.00     5708.34


     Writing all to output data dir /home/rfa/Skripsi/DFT/dft-graphene/tmp/gr-ab-2L.save/ :
     XML data file, charge density, pseudopotentials, collected wavefunctions

     init_run     :      0.08s CPU      0.13s WALL (       1 calls)
     electrons    :      1.86s CPU      1.09s WALL (       1 calls)
     forces       :      0.00s CPU      0.01s WALL (       1 calls)
     stress       :      0.03s CPU      0.03s WALL (       1 calls)

     Called by init_run:
     wfcinit      :      0.03s CPU      0.03s WALL (       1 calls)
     potinit      :      0.00s CPU      0.00s WALL (       1 calls)
     hinit0       :      0.04s CPU      0.08s WALL (       1 calls)

     Called by electrons:
     c_bands      :      1.53s CPU      0.89s WALL (      13 calls)
     sum_band     :      0.18s CPU      0.10s WALL (      13 calls)
     v_of_rho     :      0.09s CPU      0.05s WALL (      14 calls)
     newd         :      0.03s CPU      0.02s WALL (      14 calls)
     mix_rho      :      0.02s CPU      0.01s WALL (      13 calls)

     Called by c_bands:
     init_us_2    :      0.02s CPU      0.01s WALL (     203 calls)
     cegterg      :      1.45s CPU      0.84s WALL (      91 calls)

     Called by *egterg:
     cdiaghg      :      0.40s CPU      0.21s WALL (     510 calls)
     h_psi        :      0.86s CPU      0.52s WALL (     517 calls)
     s_psi        :      0.03s CPU      0.02s WALL (     517 calls)
     g_psi        :      0.01s CPU      0.01s WALL (     419 calls)

     Called by h_psi:
     h_psi:calbec :      0.07s CPU      0.05s WALL (     517 calls)
     vloc_psi     :      0.74s CPU      0.44s WALL (     517 calls)
     add_vuspsi   :      0.03s CPU      0.02s WALL (     517 calls)

     General routines
     calbec       :      0.09s CPU      0.07s WALL (     727 calls)
     fft          :      0.06s CPU      0.08s WALL (     179 calls)
     ffts         :      0.00s CPU      0.00s WALL (      13 calls)
     fftw         :      0.69s CPU      0.41s WALL (    7640 calls)

     Parallel routines

     PWSCF        :      2.08s CPU      1.46s WALL


   This run was terminated on:  14:54:47  16Apr2025            

=------------------------------------------------------------------------------=
   JOB DONE.
=------------------------------------------------------------------------------=
