
     Program PWSCF v.7.4.1 starts on 16Apr2025 at 14:55:41 

     This program is part of the open-source Quantum ESPRESSO suite
     for quantum simulation of materials; please cite
         "P. Giannozzi et al., J. Phys.:Condens. Matter 21 395502 (2009);
         "P. Giannozzi et al., J. Phys.:Condens. Matter 29 465901 (2017);
         "P. Giannozzi et al., J. Chem. Phys. 152 154105 (2020);
          URL http://www.quantum-espresso.org", 
     in publications or presentations arising from this work. More details at
     http://www.quantum-espresso.org/quote

     Parallel version (MPI), running on     7 processors

     MPI processes distributed on     1 nodes
     12645 MiB available memory on the printing compute node when the environment starts

     Waiting for input...
     Reading input from standard input

     Current dimensions of program PWSCF are:
     Max number of different atomic species (ntypx) = 10
     Max number of k-points (npk) =  40000
     Max angular momentum in pseudopotentials (lmaxx) =  4

     R & G space division:  proc/nbgrp/npool/nimage =       7
     Subspace diagonalization in iterative solution of the eigenvalue problem:
     a serial algorithm will be used


     Parallelization info
     --------------------
     sticks:   dense  smooth     PW     G-vecs:    dense   smooth      PW
     Min          17      17      5                  919      919     181
     Max          18      18      6                  934      934     204
     Sum         121     121     37                 6489     6489    1321

     Using Slab Decomposition



     bravais-lattice index     =            4
     lattice parameter (alat)  =       4.6561  a.u.
     unit-cell volume          =     532.1899 (a.u.)^3
     number of atoms/cell      =            4
     number of atomic types    =            1
     number of electrons       =        16.00
     number of Kohn-Sham states=           12
     kinetic-energy cutoff     =      20.0000  Ry
     charge density cutoff     =      80.0000  Ry
     scf convergence threshold =      1.0E-08
     mixing beta               =       0.7000
     number of iterations used =            8  plain     mixing
     Exchange-correlation= PBE
                           (   1   4   3   4   0   0   0)

     celldm(1)=   4.656107  celldm(2)=   0.000000  celldm(3)=   6.087896
     celldm(4)=   0.000000  celldm(5)=   0.000000  celldm(6)=   0.000000

     crystal axes: (cart. coord. in units of alat)
               a(1) = (   1.000000   0.000000   0.000000 )  
               a(2) = (  -0.500000   0.866025   0.000000 )  
               a(3) = (   0.000000   0.000000   6.087896 )  

     reciprocal axes: (cart. coord. in units 2 pi/alat)
               b(1) = (  1.000000  0.577350 -0.000000 )  
               b(2) = (  0.000000  1.154701  0.000000 )  
               b(3) = (  0.000000 -0.000000  0.164260 )  


     PseudoPot. # 1 for C  read from file:
     /home/rfa/Skripsi/DFT/dft-graphene/pseudo/C.pbe-n-rrkjus_psl.0.1.UPF
     MD5 check sum: 96a6a315177d77e6c95bf6fd3870f9e3
     Pseudo is Ultrasoft + core correction, Zval =  4.0
     Generated using &quot;atomic&quot; code by A. Dal Corso  v.6.3MaX
     Using radial grid of 1073 points,  4 beta functions with: 
                l(1) =   0
                l(2) =   0
                l(3) =   1
                l(4) =   1
     Q(r) pseudized with 0 coefficients 


     atomic species   valence    mass     pseudopotential
     C                 4.00    12.01070     C ( 1.00)

      6 Sym. Ops. (no inversion) found



   Cartesian axes

     site n.     atom                  positions (alat units)
         1        C      tau(   1) = (   0.0000000   0.5773503   3.0439478  )
         2        C      tau(   2) = (   0.5000000   0.2886751   3.0439478  )
         3        C      tau(   3) = (   0.0000000   0.0000000   3.2468777  )
         4        C      tau(   4) = (   0.0000000   0.5773503   3.2468777  )

     number of k points=    61  Marzari-Vanderbilt smearing, width (Ry)=  0.0200
                       cart. coord. in units 2pi/alat
        k(    1) = (   0.0000000   0.0000000   0.0000000), wk =   0.0034722
        k(    2) = (   0.0000000   0.0481125   0.0000000), wk =   0.0208333
        k(    3) = (   0.0000000   0.0962250   0.0000000), wk =   0.0208333
        k(    4) = (   0.0000000   0.1443376   0.0000000), wk =   0.0208333
        k(    5) = (   0.0000000   0.1924501   0.0000000), wk =   0.0208333
        k(    6) = (   0.0000000   0.2405626   0.0000000), wk =   0.0208333
        k(    7) = (   0.0000000   0.2886751   0.0000000), wk =   0.0208333
        k(    8) = (   0.0000000   0.3367877   0.0000000), wk =   0.0208333
        k(    9) = (   0.0000000   0.3849002   0.0000000), wk =   0.0208333
        k(   10) = (   0.0000000   0.4330127   0.0000000), wk =   0.0208333
        k(   11) = (   0.0000000   0.4811252   0.0000000), wk =   0.0208333
        k(   12) = (   0.0000000   0.5292377   0.0000000), wk =   0.0208333
        k(   13) = (   0.0000000  -0.5773503   0.0000000), wk =   0.0104167
        k(   14) = (   0.0416667   0.0721688   0.0000000), wk =   0.0208333
        k(   15) = (   0.0416667   0.1202813   0.0000000), wk =   0.0416667
        k(   16) = (   0.0416667   0.1683938   0.0000000), wk =   0.0416667
        k(   17) = (   0.0416667   0.2165064   0.0000000), wk =   0.0416667
        k(   18) = (   0.0416667   0.2646189   0.0000000), wk =   0.0416667
        k(   19) = (   0.0416667   0.3127314   0.0000000), wk =   0.0416667
        k(   20) = (   0.0416667   0.3608439   0.0000000), wk =   0.0416667
        k(   21) = (   0.0416667   0.4089564   0.0000000), wk =   0.0416667
        k(   22) = (   0.0416667   0.4570690   0.0000000), wk =   0.0416667
        k(   23) = (   0.0416667   0.5051815   0.0000000), wk =   0.0416667
        k(   24) = (   0.0416667   0.5532940   0.0000000), wk =   0.0416667
        k(   25) = (   0.0833333   0.1443376   0.0000000), wk =   0.0208333
        k(   26) = (   0.0833333   0.1924501   0.0000000), wk =   0.0416667
        k(   27) = (   0.0833333   0.2405626   0.0000000), wk =   0.0416667
        k(   28) = (   0.0833333   0.2886751   0.0000000), wk =   0.0416667
        k(   29) = (   0.0833333   0.3367877   0.0000000), wk =   0.0416667
        k(   30) = (   0.0833333   0.3849002   0.0000000), wk =   0.0416667
        k(   31) = (   0.0833333   0.4330127   0.0000000), wk =   0.0416667
        k(   32) = (   0.0833333   0.4811252   0.0000000), wk =   0.0416667
        k(   33) = (   0.0833333   0.5292377   0.0000000), wk =   0.0416667
        k(   34) = (   0.0833333   0.5773503   0.0000000), wk =   0.0208333
        k(   35) = (   0.1250000   0.2165064   0.0000000), wk =   0.0208333
        k(   36) = (   0.1250000   0.2646189   0.0000000), wk =   0.0416667
        k(   37) = (   0.1250000   0.3127314   0.0000000), wk =   0.0416667
        k(   38) = (   0.1250000   0.3608439   0.0000000), wk =   0.0416667
        k(   39) = (   0.1250000   0.4089564   0.0000000), wk =   0.0416667
        k(   40) = (   0.1250000   0.4570690   0.0000000), wk =   0.0416667
        k(   41) = (   0.1250000   0.5051815   0.0000000), wk =   0.0416667
        k(   42) = (   0.1250000   0.5532940   0.0000000), wk =   0.0416667
        k(   43) = (   0.1666667   0.2886751   0.0000000), wk =   0.0208333
        k(   44) = (   0.1666667   0.3367877   0.0000000), wk =   0.0416667
        k(   45) = (   0.1666667   0.3849002   0.0000000), wk =   0.0416667
        k(   46) = (   0.1666667   0.4330127   0.0000000), wk =   0.0416667
        k(   47) = (   0.1666667   0.4811252   0.0000000), wk =   0.0416667
        k(   48) = (   0.1666667   0.5292377   0.0000000), wk =   0.0416667
        k(   49) = (   0.1666667   0.5773503   0.0000000), wk =   0.0208333
        k(   50) = (   0.2083333   0.3608439   0.0000000), wk =   0.0208333
        k(   51) = (   0.2083333   0.4089564   0.0000000), wk =   0.0416667
        k(   52) = (   0.2083333   0.4570690   0.0000000), wk =   0.0416667
        k(   53) = (   0.2083333   0.5051815   0.0000000), wk =   0.0416667
        k(   54) = (   0.2083333   0.5532940   0.0000000), wk =   0.0416667
        k(   55) = (   0.2500000   0.4330127   0.0000000), wk =   0.0208333
        k(   56) = (   0.2500000   0.4811252   0.0000000), wk =   0.0416667
        k(   57) = (   0.2500000   0.5292377   0.0000000), wk =   0.0416667
        k(   58) = (   0.2500000   0.5773503   0.0000000), wk =   0.0208333
        k(   59) = (   0.2916667   0.5051815   0.0000000), wk =   0.0208333
        k(   60) = (   0.2916667   0.5532940   0.0000000), wk =   0.0416667
        k(   61) = (   0.3333333   0.5773503   0.0000000), wk =   0.0069444

     Dense  grid:     6489 G-vectors     FFT dimensions: (  15,  15,  81)

     Estimated max dynamical RAM per process >       2.89 MB

     Estimated total dynamical RAM >      20.20 MB

     Check: negative core charge=   -0.000310

     Initial potential from superposition of free atoms

     starting charge      15.9998, renormalised to      16.0000

     negative rho (up, down):  1.235E-02 0.000E+00
     Starting wfcs are   16 randomized atomic wfcs

     total cpu time spent up to now is        0.5 secs

     per-process dynamical memory:     9.0 Mb

     Self-consistent Calculation

     iteration #  1     ecut=    20.00 Ry     beta= 0.70
     Davidson diagonalization with overlap
     ethr =  1.00E-02,  avg # of iterations =  4.5

     negative rho (up, down):  1.069E-01 0.000E+00

     total cpu time spent up to now is        1.3 secs

     total energy              =     -32.08773168 Ry
     estimated scf accuracy    <       3.70553023 Ry

     iteration #  2     ecut=    20.00 Ry     beta= 0.70
     Davidson diagonalization with overlap
     ethr =  1.00E-02,  avg # of iterations =  5.5

     negative rho (up, down):  3.849E-03 0.000E+00

     total cpu time spent up to now is        2.2 secs

     total energy              =     -31.25827937 Ry
     estimated scf accuracy    <       7.02710235 Ry

     iteration #  3     ecut=    20.00 Ry     beta= 0.70
     Davidson diagonalization with overlap
     ethr =  1.00E-02,  avg # of iterations =  4.5

     negative rho (up, down):  1.101E-02 0.000E+00

     total cpu time spent up to now is        2.9 secs

     total energy              =     -33.61211004 Ry
     estimated scf accuracy    <       0.36714808 Ry

     iteration #  4     ecut=    20.00 Ry     beta= 0.70
     Davidson diagonalization with overlap
     ethr =  2.29E-03,  avg # of iterations =  2.2

     negative rho (up, down):  2.301E-02 0.000E+00

     total cpu time spent up to now is        3.4 secs

     total energy              =     -33.58184016 Ry
     estimated scf accuracy    <       0.15406821 Ry

     iteration #  5     ecut=    20.00 Ry     beta= 0.70
     Davidson diagonalization with overlap
     ethr =  9.63E-04,  avg # of iterations =  2.0

     negative rho (up, down):  5.199E-02 0.000E+00

     total cpu time spent up to now is        3.9 secs

     total energy              =     -33.53814222 Ry
     estimated scf accuracy    <       0.07293841 Ry

     iteration #  6     ecut=    20.00 Ry     beta= 0.70
     Davidson diagonalization with overlap
     ethr =  4.56E-04,  avg # of iterations =  5.3

     negative rho (up, down):  6.176E-02 0.000E+00

     total cpu time spent up to now is        4.5 secs

     total energy              =     -33.53820456 Ry
     estimated scf accuracy    <       0.00958230 Ry

     iteration #  7     ecut=    20.00 Ry     beta= 0.70
     Davidson diagonalization with overlap
     ethr =  5.99E-05,  avg # of iterations =  6.7

     negative rho (up, down):  9.121E-02 0.000E+00

     total cpu time spent up to now is        5.3 secs

     total energy              =     -33.53591349 Ry
     estimated scf accuracy    <       0.00360267 Ry

     iteration #  8     ecut=    20.00 Ry     beta= 0.70
     Davidson diagonalization with overlap
     c_bands:  1 eigenvalues not converged
     c_bands:  1 eigenvalues not converged
     ethr =  2.25E-05,  avg # of iterations = 11.1

     negative rho (up, down):  8.032E-02 0.000E+00

     total cpu time spent up to now is        6.3 secs

     total energy              =     -33.53577431 Ry
     estimated scf accuracy    <       0.00101656 Ry

     iteration #  9     ecut=    20.00 Ry     beta= 0.70
     Davidson diagonalization with overlap
     c_bands:  1 eigenvalues not converged
     c_bands:  1 eigenvalues not converged
     ethr =  6.35E-06,  avg # of iterations =  9.0

     negative rho (up, down):  8.055E-02 0.000E+00

     total cpu time spent up to now is        7.2 secs

     total energy              =     -33.53587765 Ry
     estimated scf accuracy    <       0.00000310 Ry

     iteration # 10     ecut=    20.00 Ry     beta= 0.70
     Davidson diagonalization with overlap
     ethr =  1.94E-08,  avg # of iterations =  4.4

     negative rho (up, down):  8.008E-02 0.000E+00

     total cpu time spent up to now is        7.9 secs

     total energy              =     -33.53588061 Ry
     estimated scf accuracy    <       0.00000162 Ry

     iteration # 11     ecut=    20.00 Ry     beta= 0.70
     Davidson diagonalization with overlap
     ethr =  1.01E-08,  avg # of iterations =  2.6

     negative rho (up, down):  8.015E-02 0.000E+00

     total cpu time spent up to now is        8.4 secs

     total energy              =     -33.53588117 Ry
     estimated scf accuracy    <       0.00000010 Ry

     iteration # 12     ecut=    20.00 Ry     beta= 0.70
     Davidson diagonalization with overlap
     ethr =  5.95E-10,  avg # of iterations =  2.2

     negative rho (up, down):  8.016E-02 0.000E+00

     total cpu time spent up to now is        9.0 secs

     End of self-consistent calculation

          k = 0.0000 0.0000 0.0000 (   815 PWs)   bands (ev):

   -31.4156 -23.6597 -23.6597 -15.6681 -10.0223 -10.0223  -5.8817   2.2103
     2.4093   3.6314   4.4706   5.0077

          k = 0.0000 0.0481 0.0000 (   821 PWs)   bands (ev):

   -31.3947 -23.8279 -23.7795 -15.6586 -10.0280  -9.8912  -5.7440   2.2678
     2.4652   3.6816   4.5170   5.0532

          k = 0.0000 0.0962 0.0000 (   825 PWs)   bands (ev):

   -31.3579 -24.0224 -23.8797 -15.5611  -9.8241  -9.4256  -5.7203   2.4292
     2.6355   3.7922   4.6354   5.1627

          k = 0.0000 0.1443 0.0000 (   821 PWs)   bands (ev):

   -31.2887 -24.3067 -23.9394 -15.3225  -9.5054  -8.6432  -5.5663   2.7077
     2.9214   4.0035   4.5406   5.2736

          k = 0.0000 0.1925 0.0000 (   824 PWs)   bands (ev):

   -31.2825 -24.6455 -24.3329 -14.9797  -9.0888  -7.6885  -5.3398   3.0965
     3.2677   3.4754   4.4144   5.5113

          k = 0.0000 0.2406 0.0000 (   816 PWs)   bands (ev):

   -31.2099 -24.9393 -24.3898 -14.5402  -8.3611  -6.3436  -5.1169   1.9623
     3.5889   3.8471   4.6468   5.4555

          k = 0.0000 0.2887 0.0000 (   796 PWs)   bands (ev):

   -31.0712 -25.2097 -24.3104 -13.9944  -7.3005  -4.7407  -4.7065   0.4986
     4.1345   4.4602   4.6862   5.5770

          k = 0.0000 0.3368 0.0000 (   800 PWs)   bands (ev):

   -30.9829 -25.6455 -24.4441 -13.3744  -6.9309  -4.5305  -2.9929  -1.0861
     4.1198   4.4276   5.0508   5.2255

          k = 0.0000 0.3849 0.0000 (   806 PWs)   bands (ev):

   -30.9267 -26.0785 -24.7887 -12.6324  -6.5241  -4.5168  -2.1276  -1.6453
     3.2266   3.8523   5.8496   6.0724

          k = 0.0000 0.4330 0.0000 (   808 PWs)   bands (ev):

   -30.8876 -26.3420 -25.0789 -11.8027  -6.2140  -5.0491  -2.4882   0.0334
     2.0769   3.4752   6.4632   6.7863

          k = 0.0000 0.4811 0.0000 (   800 PWs)   bands (ev):

   -30.7966 -26.5246 -25.2596 -10.8318  -6.4973  -5.2765  -2.1273   1.1752
     1.4007   3.2424   5.8856   7.8409

          k = 0.0000 0.5292 0.0000 (   808 PWs)   bands (ev):

   -30.7967 -26.7074 -25.3970  -9.8716  -7.5485  -5.0920  -1.9379   0.3752
     2.5760   3.0158   4.8977   8.9804

          k = 0.0000-0.5774 0.0000 (   806 PWs)   bands (ev):

   -30.7690 -26.6990 -25.4422  -9.0397  -8.4137  -5.0092  -1.7265   0.0405
     3.0282   3.8707   4.0457  10.1231

          k = 0.0417 0.0722 0.0000 (   817 PWs)   bands (ev):

   -31.3638 -23.9493 -23.7687 -15.5789  -9.8314  -9.5650  -5.6309   2.3800
     2.5798   3.7776   4.6363   5.1595

          k = 0.0417 0.1203 0.0000 (   817 PWs)   bands (ev):

   -31.3089 -24.1820 -23.8925 -15.3965  -9.6269  -8.9177  -5.5180   2.6025
     2.8094   3.9656   4.7628   5.2768

          k = 0.0417 0.1684 0.0000 (   818 PWs)   bands (ev):

   -31.2792 -24.5242 -24.1291 -15.1061  -9.2812  -8.0357  -5.3359   2.9368
     3.1496   4.1398   4.3782   5.3515

          k = 0.0417 0.2165 0.0000 (   820 PWs)   bands (ev):

   -31.2507 -24.8739 -24.3417 -14.7398  -8.8389  -6.8975  -5.1355   2.7203
     3.3777   3.6245   4.5265   5.2575

          k = 0.0417 0.2646 0.0000 (   806 PWs)   bands (ev):

   -31.1625 -25.2547 -24.2660 -14.2331  -7.8804  -5.4824  -4.8634   1.2828
     3.9090   4.1837   4.5934   5.4844

          k = 0.0417 0.3127 0.0000 (   806 PWs)   bands (ev):

   -31.0620 -25.6165 -24.3542 -13.6705  -7.1869  -4.7057  -3.7781  -0.3837
     3.9714   4.6900   4.8091   4.8924

          k = 0.0417 0.3608 0.0000 (   800 PWs)   bands (ev):

   -30.9623 -25.9112 -24.5530 -12.9587  -6.7208  -4.5102  -2.2226  -1.5724
     3.6189   3.7812   5.4366   5.6740

          k = 0.0417 0.4090 0.0000 (   803 PWs)   bands (ev):

   -30.8721 -26.2510 -24.8233 -12.1862  -6.3093  -4.7360  -2.4182  -0.7183
     2.5668   3.3219   6.2949   6.5793

          k = 0.0417 0.4571 0.0000 (   802 PWs)   bands (ev):

   -30.8167 -26.5563 -25.0228 -11.2700  -6.1798  -5.2465  -2.3334   0.7546
     1.5536   2.9882   6.5913   7.3903

          k = 0.0417 0.5052 0.0000 (   804 PWs)   bands (ev):

   -30.7887 -26.8029 -25.1627 -10.3082  -6.9474  -5.1930  -1.9647   0.5690
     1.8950   2.9535   5.7705   8.4552

          k = 0.0417 0.5533 0.0000 (   810 PWs)   bands (ev):

   -30.7678 -26.9345 -25.2634  -9.3432  -8.0471  -5.0438  -1.8114   0.0027
     2.2713   3.5595   4.8481   9.6302

          k = 0.0833 0.1443 0.0000 (   809 PWs)   bands (ev):

   -31.2349 -24.4324 -23.8830 -15.1481  -9.2690  -8.0758  -5.3615   2.8814
     3.0947   4.1853   4.6476   5.1917

          k = 0.0833 0.1925 0.0000 (   819 PWs)   bands (ev):

   -31.2486 -24.9544 -24.1502 -14.8225  -8.9057  -7.0791  -5.1740   3.2625
     3.4370   3.6609   4.2952   4.8853

          k = 0.0833 0.2406 0.0000 (   817 PWs)   bands (ev):

   -31.2058 -25.4276 -24.1994 -14.3864  -8.3451  -5.8376  -4.9278   2.1104
     3.7263   3.9828   4.0948   5.1896

          k = 0.0833 0.2887 0.0000 (   799 PWs)   bands (ev):

   -31.0858 -25.7545 -24.1264 -13.8194  -7.5886  -4.6139  -4.0927   0.6533
     3.5654   4.4216   4.6524   5.0832

          k = 0.0833 0.3368 0.0000 (   808 PWs)   bands (ev):

   -31.0157 -26.1592 -24.3402 -13.2290  -7.0349  -4.5334  -2.6520  -0.9808
     2.9247   3.9887   5.1273   5.3866

          k = 0.0833 0.3849 0.0000 (   802 PWs)   bands (ev):

   -30.9121 -26.4527 -24.4873 -12.4699  -6.5362  -4.4823  -2.0445  -1.1665
     2.5546   3.0089   5.9465   6.2386

          k = 0.0833 0.4330 0.0000 (   803 PWs)   bands (ev):

   -30.8236 -26.7511 -24.6475 -11.6186  -6.1203  -4.9005  -2.4317   0.1049
     1.7601   2.4272   6.7985   7.1992

          k = 0.0833 0.4811 0.0000 (   801 PWs)   bands (ev):

   -30.7251 -27.0135 -24.7651 -10.6894  -6.3747  -5.2780  -2.2334   0.5122
     1.4523   2.6837   6.9483   8.0939

          k = 0.0833 0.5292 0.0000 (   808 PWs)   bands (ev):

   -30.7091 -27.2173 -24.8752  -9.7241  -7.4293  -5.1032  -2.0150  -0.1353
     1.3846   3.5570   6.1497   9.1846

          k = 0.0833 0.5774 0.0000 (   806 PWs)   bands (ev):

   -30.6625 -27.2776 -24.8980  -8.9235  -8.2758  -4.9940  -1.8577  -0.4124
     1.3791   4.3031   5.5709  10.3724

          k = 0.1250 0.2165 0.0000 (   811 PWs)   bands (ev):

   -31.1870 -25.3758 -24.0322 -14.4297  -8.4196  -5.7918  -4.9549   2.8143
     3.3832   3.7579   3.9727   5.1007

          k = 0.1250 0.2646 0.0000 (   811 PWs)   bands (ev):

   -31.1370 -25.8733 -24.0525 -13.9450  -7.9515  -4.7883  -4.3103   1.3551
     2.6957   4.2872   4.5352   5.0990

          k = 0.1250 0.3127 0.0000 (   804 PWs)   bands (ev):

   -31.0393 -26.2429 -24.0824 -13.3544  -7.2244  -4.4381  -2.7222  -0.1037
     2.1360   4.1301   4.9539   5.2163

          k = 0.1250 0.3608 0.0000 (   802 PWs)   bands (ev):

   -30.9486 -26.6520 -24.2139 -12.6468  -6.7758  -4.3472  -1.6191  -1.1548
     1.8062   3.1061   5.7220   6.0120

          k = 0.1250 0.4090 0.0000 (   802 PWs)   bands (ev):

   -30.8151 -26.9709 -24.3160 -11.8736  -6.2969  -4.5287  -2.2584  -0.2645
     1.5353   2.1687   6.5737   6.9191

          k = 0.1250 0.4571 0.0000 (   797 PWs)   bands (ev):

   -30.7064 -27.2400 -24.3794 -10.9580  -5.9552  -5.0657  -2.3092  -0.0009
     1.3056   2.4713   7.3834   7.9307

          k = 0.1250 0.5052 0.0000 (   795 PWs)   bands (ev):

   -30.6144 -27.4816 -24.4302 -10.0017  -6.6776  -5.0393  -2.0354  -0.4179
     0.7764   3.8283   7.3738   8.8975

          k = 0.1250 0.5533 0.0000 (   800 PWs)   bands (ev):

   -30.5560 -27.6186 -24.4619  -9.0507  -7.7706  -4.8630  -1.8616  -0.9744
     0.5423   5.0670   6.6265  10.0433

          k = 0.1667 0.2887 0.0000 (   809 PWs)   bands (ev):

   -31.0485 -26.3328 -24.0410 -13.4094  -7.4891  -4.5248  -2.9110   0.4268
     1.5530   4.1905   4.8942   5.1592

          k = 0.1667 0.3368 0.0000 (   804 PWs)   bands (ev):

   -30.9481 -26.7363 -24.0390 -12.7606  -6.9133  -4.2264  -1.4948  -0.7282
     0.9369   3.2019   5.6072   5.8976

          k = 0.1667 0.3849 0.0000 (   802 PWs)   bands (ev):

   -30.8298 -27.1517 -24.0947 -12.0061  -6.4168  -4.1885  -1.9786  -0.6053
     1.1272   2.2404   6.4217   6.7494

          k = 0.1667 0.4330 0.0000 (   795 PWs)   bands (ev):

   -30.6773 -27.4512 -24.0639 -11.1476  -5.9039  -4.5540  -2.4460  -0.6190
     1.2369   2.5461   7.3050   7.7125

          k = 0.1667 0.4811 0.0000 (   790 PWs)   bands (ev):

   -30.5202 -27.7317 -24.0785 -10.2346  -5.9274  -4.9897  -2.3587  -0.8948
     0.5360   3.8730   7.9638   8.7643

          k = 0.1667 0.5292 0.0000 (   794 PWs)   bands (ev):

   -30.4412 -27.9729 -24.1290  -9.2661  -6.9837  -4.7624  -2.1415  -1.3317
    -0.0675   5.0495   7.6714   9.7872

          k = 0.1667 0.5774 0.0000 (   796 PWs)   bands (ev):

   -30.3870 -28.0426 -24.1563  -8.4757  -7.8415  -4.6654  -1.9769  -1.6858
    -0.2187   5.8330   7.1482  10.9033

          k = 0.2083 0.3608 0.0000 (   793 PWs)   bands (ev):

   -30.7735 -27.1761 -23.9614 -12.0408  -6.3958  -3.8919  -1.6643  -0.8190
     1.0161   2.4610   6.3772   6.6931

          k = 0.2083 0.4090 0.0000 (   795 PWs)   bands (ev):

   -30.6654 -27.6362 -23.9345 -11.2394  -5.9791  -3.9316  -2.5851  -1.1007
     1.1465   2.4054   7.2229   7.6004

          k = 0.2083 0.4571 0.0000 (   795 PWs)   bands (ev):

   -30.5254 -28.0255 -23.9217 -10.3737  -5.5976  -4.6684  -2.9228  -1.3020
     0.3039   3.7164   8.0791   8.6167

          k = 0.2083 0.5052 0.0000 (   792 PWs)   bands (ev):

   -30.3075 -28.2563 -23.8926  -9.4370  -6.1150  -4.7221  -2.9928  -1.4791
    -0.3302   5.0408   8.4380   9.6710

          k = 0.2083 0.5533 0.0000 (   798 PWs)   bands (ev):

   -30.2334 -28.4826 -23.9120  -8.4686  -7.2034  -4.4939  -3.0173  -1.6416
    -0.8731   6.0195   7.9425  10.7498

          k = 0.2500 0.4330 0.0000 (   799 PWs)   bands (ev):

   -30.5213 -28.1032 -23.8444 -10.4299  -5.5540  -4.0855  -3.5446  -1.4917
     0.2366   3.5861   8.0686   8.5612

          k = 0.2500 0.4811 0.0000 (   797 PWs)   bands (ev):

   -30.2949 -28.4687 -23.7844  -9.5246  -5.3532  -4.6906  -3.9417  -1.6070
    -0.5768   4.8794   8.8085   9.6251

          k = 0.2500 0.5292 0.0000 (   796 PWs)   bands (ev):

   -30.0761 -28.7051 -23.7122  -8.5669  -6.2718  -4.3511  -4.0265  -1.6639
    -1.2213   6.1121   8.7907  10.6257

          k = 0.2500 0.5774 0.0000 (   794 PWs)   bands (ev):

   -29.9635 -28.8332 -23.7067  -7.7654  -7.1531  -4.1728  -4.0271  -1.6108
    -1.5302   6.8546   8.4014  11.2033

          k = 0.2917 0.5052 0.0000 (   799 PWs)   bands (ev):

   -30.0344 -28.8608 -23.6848  -8.6093  -5.4345  -5.1614  -4.1193  -1.8350
    -1.3304   6.1004   9.2518  10.7654

          k = 0.2917 0.5533 0.0000 (   794 PWs)   bands (ev):

   -29.7652 -29.0964 -23.5887  -7.6295  -6.3635  -5.2533  -3.6215  -2.1287
    -1.5574   7.1728   9.1035  10.4534

          k = 0.3333 0.5774 0.0000 (   783 PWs)   bands (ev):

   -29.3352 -29.3351 -23.5059  -6.9153  -6.1755  -6.1734  -2.7448  -2.7442
    -1.5413   7.7565   9.6546   9.6717

     the Fermi energy is     0.8142 ev

!    total energy              =     -33.53588113 Ry
     estimated scf accuracy    <          8.2E-09 Ry
     smearing contrib. (-TS)   =       0.00023975 Ry
     internal energy E=F+TS    =     -33.53612088 Ry

     The total energy is F=E-TS. E is the sum of the following terms:
     one-electron contribution =    -612.98220853 Ry
     hartree contribution      =     309.46856677 Ry
     xc contribution           =     -19.34406908 Ry
     ewald contribution        =     289.32158995 Ry

     convergence has been achieved in  12 iterations

     negative rho (up, down):  8.016E-02 0.000E+00

     Forces acting on atoms (cartesian axes, Ry/au):

     atom    1 type  1   force =     0.00000000    0.00000000  -28.20862651
     atom    2 type  1   force =     0.00000000   -0.00000000   -0.59830450
     atom    3 type  1   force =     0.00000000    0.00000000    0.59565280
     atom    4 type  1   force =     0.00000000   -0.00000000   28.21127821

     Total force =    39.903829     Total SCF correction =     0.000323


     Computing stress (Cartesian axis) and pressure


     negative rho (up, down):  8.016E-02 0.000E+00
          total   stress  (Ry/bohr**3)                   (kbar)     P=     1708.57
  -0.00202554   0.00000000   0.00000000         -297.97        0.00        0.00
   0.00000000  -0.00202554   0.00000000            0.00     -297.97        0.00
   0.00000000   0.00000000   0.03889504            0.00        0.00     5721.66


     Writing all to output data dir /home/rfa/Skripsi/DFT/dft-graphene/tmp/gr-ab-2L.save/ :
     XML data file, charge density, pseudopotentials, collected wavefunctions

     init_run     :      0.49s CPU      0.35s WALL (       1 calls)
     electrons    :     14.53s CPU      8.50s WALL (       1 calls)
     forces       :      0.03s CPU      0.04s WALL (       1 calls)
     stress       :      0.13s CPU      0.14s WALL (       1 calls)

     Called by init_run:
     wfcinit      :      0.39s CPU      0.22s WALL (       1 calls)
     potinit      :      0.01s CPU      0.01s WALL (       1 calls)
     hinit0       :      0.08s CPU      0.12s WALL (       1 calls)

     Called by electrons:
     c_bands      :     13.66s CPU      7.64s WALL (      12 calls)
     sum_band     :      0.78s CPU      0.76s WALL (      12 calls)
     v_of_rho     :      0.05s CPU      0.05s WALL (      13 calls)
     newd         :      0.02s CPU      0.02s WALL (      13 calls)
     mix_rho      :      0.01s CPU      0.01s WALL (      12 calls)

     Called by c_bands:
     init_us_2    :      0.20s CPU      0.13s WALL (    1647 calls)
     cegterg      :     12.92s CPU      7.15s WALL (     732 calls)

     Called by *egterg:
     cdiaghg      :      3.27s CPU      1.72s WALL (    4396 calls)
     h_psi        :      8.11s CPU      4.55s WALL (    4457 calls)
     s_psi        :      0.23s CPU      0.12s WALL (    4457 calls)
     g_psi        :      0.09s CPU      0.05s WALL (    3664 calls)

     Called by h_psi:
     h_psi:calbec :      0.67s CPU      0.36s WALL (    4457 calls)
     vloc_psi     :      7.02s CPU      3.92s WALL (    4457 calls)
     add_vuspsi   :      0.26s CPU      0.14s WALL (    4457 calls)

     General routines
     calbec       :      0.78s CPU      0.49s WALL (    6226 calls)
     fft          :      0.06s CPU      0.09s WALL (     168 calls)
     ffts         :      0.00s CPU      0.00s WALL (      12 calls)
     fftw         :      6.44s CPU      3.75s WALL (   62742 calls)

     Parallel routines

     PWSCF        :     15.38s CPU      9.56s WALL


   This run was terminated on:  14:55:51  16Apr2025            

=------------------------------------------------------------------------------=
   JOB DONE.
=------------------------------------------------------------------------------=
