
     Program PWSCF v.7.4.1 starts on 18Mar2025 at 14:29: 2 

     This program is part of the open-source Quantum ESPRESSO suite
     for quantum simulation of materials; please cite
         "P. Giannozzi et al., J. Phys.:Condens. Matter 21 395502 (2009);
         "P. Giannozzi et al., J. Phys.:Condens. Matter 29 465901 (2017);
         "P. Giannozzi et al., J. Chem. Phys. 152 154105 (2020);
          URL http://www.quantum-espresso.org", 
     in publications or presentations arising from this work. More details at
     http://www.quantum-espresso.org/quote

     Parallel version (MPI), running on     7 processors

     MPI processes distributed on     1 nodes
     4627 MiB available memory on the printing compute node when the environment starts

     Waiting for input...
     Reading input from standard input

     Current dimensions of program PWSCF are:
     Max number of different atomic species (ntypx) = 10
     Max number of k-points (npk) =  40000
     Max angular momentum in pseudopotentials (lmaxx) =  4

     R & G space division:  proc/nbgrp/npool/nimage =       7
     Subspace diagonalization in iterative solution of the eigenvalue problem:
     a serial algorithm will be used


     Parallelization info
     --------------------
     sticks:   dense  smooth     PW     G-vecs:    dense   smooth      PW
     Min          51      51     15                 4783     4783     815
     Max          52      52     16                 4800     4800     838
     Sum         361     361    109                33523    33523    5791

     Using Slab Decomposition



     bravais-lattice index     =            4
     lattice parameter (alat)  =       4.6561  a.u.
     unit-cell volume          =     532.1899 (a.u.)^3
     number of atoms/cell      =            4
     number of atomic types    =            1
     number of electrons       =        16.00
     number of Kohn-Sham states=           12
     kinetic-energy cutoff     =      60.0000  Ry
     charge density cutoff     =     240.0000  Ry
     scf convergence threshold =      1.0E-08
     mixing beta               =       0.7000
     number of iterations used =            8  plain     mixing
     Exchange-correlation= PBE
                           (   1   4   3   4   0   0   0)

     celldm(1)=   4.656107  celldm(2)=   0.000000  celldm(3)=   6.087896
     celldm(4)=   0.000000  celldm(5)=   0.000000  celldm(6)=   0.000000

     crystal axes: (cart. coord. in units of alat)
               a(1) = (   1.000000   0.000000   0.000000 )  
               a(2) = (  -0.500000   0.866025   0.000000 )  
               a(3) = (   0.000000   0.000000   6.087896 )  

     reciprocal axes: (cart. coord. in units 2 pi/alat)
               b(1) = (  1.000000  0.577350 -0.000000 )  
               b(2) = (  0.000000  1.154701  0.000000 )  
               b(3) = (  0.000000 -0.000000  0.164260 )  


     PseudoPot. # 1 for C  read from file:
     /run/media/rfa/SATA/Skripsi/DFT/Graphene-copy/pseudo/C.pbe-n-rrkjus_psl.0.1.UPF
     MD5 check sum: 96a6a315177d77e6c95bf6fd3870f9e3
     Pseudo is Ultrasoft + core correction, Zval =  4.0
     Generated using &quot;atomic&quot; code by A. Dal Corso  v.6.3MaX
     Using radial grid of 1073 points,  4 beta functions with: 
                l(1) =   0
                l(2) =   0
                l(3) =   1
                l(4) =   1
     Q(r) pseudized with 0 coefficients 


     atomic species   valence    mass     pseudopotential
     C                 4.00    12.01070     C ( 1.00)

      6 Sym. Ops. (no inversion) found



   Cartesian axes

     site n.     atom                  positions (alat units)
         1        C      tau(   1) = (   0.0000000   0.5773503   3.0439478  )
         2        C      tau(   2) = (   0.5000000   0.2886751   3.0439478  )
         3        C      tau(   3) = (   0.0000000   0.0000000   3.2468777  )
         4        C      tau(   4) = (   0.0000000   0.5773503   3.2468777  )

     number of k points=     7  Marzari-Vanderbilt smearing, width (Ry)=  0.0200
                       cart. coord. in units 2pi/alat
        k(    1) = (   0.0000000   0.0000000   0.0000000), wk =   0.0555556
        k(    2) = (   0.0000000   0.1924501   0.0000000), wk =   0.3333333
        k(    3) = (   0.0000000   0.3849002   0.0000000), wk =   0.3333333
        k(    4) = (   0.0000000  -0.5773503   0.0000000), wk =   0.1666667
        k(    5) = (   0.1666667   0.2886751   0.0000000), wk =   0.3333333
        k(    6) = (   0.1666667   0.4811252   0.0000000), wk =   0.6666667
        k(    7) = (   0.3333333   0.5773503   0.0000000), wk =   0.1111111

     Dense  grid:    33523 G-vectors     FFT dimensions: (  24,  24, 144)

     Estimated max dynamical RAM per process >       8.25 MB

     Estimated total dynamical RAM >      57.73 MB

     Check: negative core charge=   -0.000004

     Initial potential from superposition of free atoms

     starting charge      15.9998, renormalised to      16.0000

     negative rho (up, down):  1.215E-04 0.000E+00
     Starting wfcs are   16 randomized atomic wfcs

     total cpu time spent up to now is        0.7 secs

     per-process dynamical memory:    11.0 Mb

     Self-consistent Calculation

     iteration #  1     ecut=    60.00 Ry     beta= 0.70
     Davidson diagonalization with overlap
     ethr =  1.00E-02,  avg # of iterations =  7.9

     negative rho (up, down):  8.307E-04 0.000E+00

     total cpu time spent up to now is        1.0 secs

     total energy              =     -32.71939799 Ry
     estimated scf accuracy    <       6.60393760 Ry

     iteration #  2     ecut=    60.00 Ry     beta= 0.70
     Davidson diagonalization with overlap
     ethr =  1.00E-02,  avg # of iterations =  6.4

     negative rho (up, down):  2.100E-04 0.000E+00

     total cpu time spent up to now is        1.2 secs

     total energy              =     -34.57382553 Ry
     estimated scf accuracy    <       4.39900909 Ry

     iteration #  3     ecut=    60.00 Ry     beta= 0.70
     Davidson diagonalization with overlap
     ethr =  1.00E-02,  avg # of iterations =  2.7

     negative rho (up, down):  2.985E-04 0.000E+00

     total cpu time spent up to now is        1.4 secs

     total energy              =     -35.26949174 Ry
     estimated scf accuracy    <       0.07711776 Ry

     iteration #  4     ecut=    60.00 Ry     beta= 0.70
     Davidson diagonalization with overlap
     c_bands:  2 eigenvalues not converged
     ethr =  4.82E-04,  avg # of iterations = 14.6

     negative rho (up, down):  3.832E-04 0.000E+00

     total cpu time spent up to now is        1.7 secs

     total energy              =     -35.50360725 Ry
     estimated scf accuracy    <       0.10008040 Ry

     iteration #  5     ecut=    60.00 Ry     beta= 0.70
     Davidson diagonalization with overlap
     ethr =  4.82E-04,  avg # of iterations =  2.7

     negative rho (up, down):  7.015E-04 0.000E+00

     total cpu time spent up to now is        1.9 secs

     total energy              =     -35.49641851 Ry
     estimated scf accuracy    <       0.02515377 Ry

     iteration #  6     ecut=    60.00 Ry     beta= 0.70
     Davidson diagonalization with overlap
     ethr =  1.57E-04,  avg # of iterations = 10.7

     negative rho (up, down):  7.585E-04 0.000E+00

     total cpu time spent up to now is        2.1 secs

     total energy              =     -35.51036323 Ry
     estimated scf accuracy    <       0.00943235 Ry

     iteration #  7     ecut=    60.00 Ry     beta= 0.70
     Davidson diagonalization with overlap
     ethr =  5.90E-05,  avg # of iterations =  4.1

     negative rho (up, down):  7.687E-04 0.000E+00

     total cpu time spent up to now is        2.2 secs

     total energy              =     -35.51082230 Ry
     estimated scf accuracy    <       0.00581396 Ry

     iteration #  8     ecut=    60.00 Ry     beta= 0.70
     Davidson diagonalization with overlap
     ethr =  3.63E-05,  avg # of iterations =  2.9

     negative rho (up, down):  8.317E-04 0.000E+00

     total cpu time spent up to now is        2.4 secs

     total energy              =     -35.51083312 Ry
     estimated scf accuracy    <       0.00169457 Ry

     iteration #  9     ecut=    60.00 Ry     beta= 0.70
     Davidson diagonalization with overlap
     ethr =  1.06E-05,  avg # of iterations =  9.0

     negative rho (up, down):  8.618E-04 0.000E+00

     total cpu time spent up to now is        2.6 secs

     total energy              =     -35.51152743 Ry
     estimated scf accuracy    <       0.00009446 Ry

     iteration # 10     ecut=    60.00 Ry     beta= 0.70
     Davidson diagonalization with overlap
     ethr =  5.90E-07,  avg # of iterations = 13.6

     negative rho (up, down):  8.626E-04 0.000E+00

     total cpu time spent up to now is        3.0 secs

     total energy              =     -35.51180488 Ry
     estimated scf accuracy    <       0.00001440 Ry

     iteration # 11     ecut=    60.00 Ry     beta= 0.70
     Davidson diagonalization with overlap
     ethr =  9.00E-08,  avg # of iterations =  5.6

     negative rho (up, down):  8.492E-04 0.000E+00

     total cpu time spent up to now is        3.2 secs

     total energy              =     -35.51181231 Ry
     estimated scf accuracy    <       0.00000766 Ry

     iteration # 12     ecut=    60.00 Ry     beta= 0.70
     Davidson diagonalization with overlap
     ethr =  4.79E-08,  avg # of iterations =  2.6

     negative rho (up, down):  8.497E-04 0.000E+00

     total cpu time spent up to now is        3.3 secs

     total energy              =     -35.51181245 Ry
     estimated scf accuracy    <       0.00000337 Ry

     iteration # 13     ecut=    60.00 Ry     beta= 0.70
     Davidson diagonalization with overlap
     ethr =  2.11E-08,  avg # of iterations =  4.1

     negative rho (up, down):  8.483E-04 0.000E+00

     total cpu time spent up to now is        3.5 secs

     total energy              =     -35.51181362 Ry
     estimated scf accuracy    <       0.00000023 Ry

     iteration # 14     ecut=    60.00 Ry     beta= 0.70
     Davidson diagonalization with overlap
     ethr =  1.46E-09,  avg # of iterations = 10.0

     negative rho (up, down):  8.485E-04 0.000E+00

     total cpu time spent up to now is        3.8 secs

     total energy              =     -35.51181438 Ry
     estimated scf accuracy    <       0.00000014 Ry

     iteration # 15     ecut=    60.00 Ry     beta= 0.70
     Davidson diagonalization with overlap
     ethr =  8.83E-10,  avg # of iterations =  1.7

     negative rho (up, down):  8.486E-04 0.000E+00

     total cpu time spent up to now is        3.9 secs

     total energy              =     -35.51181439 Ry
     estimated scf accuracy    <       0.00000003 Ry

     iteration # 16     ecut=    60.00 Ry     beta= 0.70
     Davidson diagonalization with overlap
     ethr =  2.09E-10,  avg # of iterations =  5.3

     negative rho (up, down):  8.485E-04 0.000E+00

     total cpu time spent up to now is        4.1 secs

     End of self-consistent calculation

          k = 0.0000 0.0000 0.0000 (  4149 PWs)   bands (ev):

   -29.6031 -21.8317 -21.8317 -16.6698  -9.3391  -9.3391  -4.8784   3.5661
     3.8829   4.1791   4.9646   5.8198

          k = 0.0000 0.1925 0.0000 (  4194 PWs)   bands (ev):

   -29.5418 -22.7895 -22.3635 -15.9425  -8.3563  -7.0415  -4.3787   1.3771
     4.5084   4.7305   4.9431   6.0520

          k = 0.0000 0.3849 0.0000 (  4180 PWs)   bands (ev):

   -29.4059 -24.2260 -23.3337 -13.7838  -5.9506  -4.5424  -2.1171  -1.9145
     2.5356   4.0596   6.7703   7.3703

          k = 0.0000-0.5774 0.0000 (  4184 PWs)   bands (ev):

   -29.3295 -24.8065 -23.7827 -11.4668  -7.9066  -3.4696  -0.5959   0.1924
     1.1230   2.8109   3.9593  10.8603

          k = 0.1667 0.2887 0.0000 (  4170 PWs)   bands (ev):

   -29.3986 -24.4923 -22.4749 -14.4898  -6.9356  -3.7271  -3.0649  -1.8204
     1.7879   5.2040   6.5094   6.5483

          k = 0.1667 0.4811 0.0000 (  4170 PWs)   bands (ev):

   -29.0788 -26.1342 -22.4773 -11.8787  -6.2917  -4.4542  -2.5228  -0.6279
     0.8692   2.9856   7.8514   9.9655

          k = 0.3333 0.5774 0.0000 (  4152 PWs)   bands (ev):

   -28.0056 -28.0056 -21.8785 -10.2940  -5.8168  -5.8168  -2.4789  -2.4789
    -0.4450   8.1792   9.0917   9.0919

     the Fermi energy is     0.8706 ev

!    total energy              =     -35.51181441 Ry
     estimated scf accuracy    <          1.5E-09 Ry
     smearing contrib. (-TS)   =      -0.00234263 Ry
     internal energy E=F+TS    =     -35.50947178 Ry

     The total energy is F=E-TS. E is the sum of the following terms:
     one-electron contribution =    -617.26160680 Ry
     hartree contribution      =     312.09254262 Ry
     xc contribution           =     -19.66199755 Ry
     ewald contribution        =     289.32158995 Ry

     convergence has been achieved in  16 iterations

     negative rho (up, down):  8.485E-04 0.000E+00

     Forces acting on atoms (cartesian axes, Ry/au):

     atom    1 type  1   force =     0.00000000   -0.00000000  -24.03443389
     atom    2 type  1   force =     0.00000000   -0.00000000   -0.41416574
     atom    3 type  1   force =     0.00000000    0.00000000    0.41413904
     atom    4 type  1   force =     0.00000000    0.00000000   24.03446059

     Total force =    33.994887     Total SCF correction =     0.000063


     Computing stress (Cartesian axis) and pressure


     negative rho (up, down):  8.485E-04 0.000E+00
          total   stress  (Ry/bohr**3)                   (kbar)     P=     2900.15
   0.00794084   0.00000000   0.00000000         1168.14        0.00        0.00
   0.00000000   0.00794084   0.00000000            0.00     1168.14        0.00
   0.00000000   0.00000000   0.04326286            0.00        0.00     6364.19


     Writing all to output data dir /run/media/rfa/SATA/Skripsi/DFT/Graphene-copy/tmp/gr-ab-2L.save/ :
     XML data file, charge density, pseudopotentials, collected wavefunctions

     init_run     :      0.43s CPU      0.70s WALL (       1 calls)
     electrons    :      5.74s CPU      3.31s WALL (       1 calls)
     forces       :      0.04s CPU      0.02s WALL (       1 calls)
     stress       :      0.10s CPU      0.07s WALL (       1 calls)

     Called by init_run:
     wfcinit      :      0.08s CPU      0.04s WALL (       1 calls)
     potinit      :      0.01s CPU      0.01s WALL (       1 calls)
     hinit0       :      0.32s CPU      0.62s WALL (       1 calls)

     Called by electrons:
     c_bands      :      4.79s CPU      2.69s WALL (      16 calls)
     sum_band     :      0.66s CPU      0.38s WALL (      16 calls)
     v_of_rho     :      0.11s CPU      0.10s WALL (      17 calls)
     newd         :      0.09s CPU      0.09s WALL (      17 calls)
     mix_rho      :      0.08s CPU      0.04s WALL (      16 calls)

     Called by c_bands:
     init_us_2    :      0.07s CPU      0.04s WALL (     245 calls)
     cegterg      :      4.67s CPU      2.62s WALL (     112 calls)

     Called by *egterg:
     cdiaghg      :      0.32s CPU      0.17s WALL (     839 calls)
     h_psi        :      3.54s CPU      2.01s WALL (     846 calls)
     s_psi        :      0.11s CPU      0.06s WALL (     846 calls)
     g_psi        :      0.04s CPU      0.02s WALL (     727 calls)

     Called by h_psi:
     h_psi:calbec :      0.35s CPU      0.20s WALL (     846 calls)
     vloc_psi     :      2.97s CPU      1.69s WALL (     846 calls)
     add_vuspsi   :      0.16s CPU      0.09s WALL (     846 calls)

     General routines
     calbec       :      0.42s CPU      0.24s WALL (    1077 calls)
     fft          :      0.35s CPU      0.65s WALL (     212 calls)
     ffts         :      0.01s CPU      0.00s WALL (      16 calls)
     fftw         :      2.83s CPU      1.61s WALL (   12484 calls)

     Parallel routines

     PWSCF        :      6.36s CPU      4.17s WALL


   This run was terminated on:  14:29: 6  18Mar2025            

=------------------------------------------------------------------------------=
   JOB DONE.
=------------------------------------------------------------------------------=
