
     Program PWSCF v.7.4.1 starts on 16Apr2025 at 14:54:48 

     This program is part of the open-source Quantum ESPRESSO suite
     for quantum simulation of materials; please cite
         "P. Giannozzi et al., J. Phys.:Condens. Matter 21 395502 (2009);
         "P. Giannozzi et al., J. Phys.:Condens. Matter 29 465901 (2017);
         "P. Giannozzi et al., J. Chem. Phys. 152 154105 (2020);
          URL http://www.quantum-espresso.org", 
     in publications or presentations arising from this work. More details at
     http://www.quantum-espresso.org/quote

     Parallel version (MPI), running on     7 processors

     MPI processes distributed on     1 nodes
     13317 MiB available memory on the printing compute node when the environment starts

     Waiting for input...
     Reading input from standard input

     Current dimensions of program PWSCF are:
     Max number of different atomic species (ntypx) = 10
     Max number of k-points (npk) =  40000
     Max angular momentum in pseudopotentials (lmaxx) =  4

     R & G space division:  proc/nbgrp/npool/nimage =       7
     Subspace diagonalization in iterative solution of the eigenvalue problem:
     a serial algorithm will be used


     Parallelization info
     --------------------
     sticks:   dense  smooth     PW     G-vecs:    dense   smooth      PW
     Min          17      17      5                  919      919     179
     Max          18      18      6                  934      934     202
     Sum         121     121     37                 6489     6489    1309

     Using Slab Decomposition



     bravais-lattice index     =            4
     lattice parameter (alat)  =       4.6561  a.u.
     unit-cell volume          =     532.1899 (a.u.)^3
     number of atoms/cell      =            4
     number of atomic types    =            1
     number of electrons       =        16.00
     number of Kohn-Sham states=           12
     kinetic-energy cutoff     =      20.0000  Ry
     charge density cutoff     =      80.0000  Ry
     scf convergence threshold =      1.0E-08
     mixing beta               =       0.7000
     number of iterations used =            8  plain     mixing
     Exchange-correlation= PBE
                           (   1   4   3   4   0   0   0)

     celldm(1)=   4.656107  celldm(2)=   0.000000  celldm(3)=   6.087896
     celldm(4)=   0.000000  celldm(5)=   0.000000  celldm(6)=   0.000000

     crystal axes: (cart. coord. in units of alat)
               a(1) = (   1.000000   0.000000   0.000000 )  
               a(2) = (  -0.500000   0.866025   0.000000 )  
               a(3) = (   0.000000   0.000000   6.087896 )  

     reciprocal axes: (cart. coord. in units 2 pi/alat)
               b(1) = (  1.000000  0.577350 -0.000000 )  
               b(2) = (  0.000000  1.154701  0.000000 )  
               b(3) = (  0.000000 -0.000000  0.164260 )  


     PseudoPot. # 1 for C  read from file:
     /home/rfa/Skripsi/DFT/dft-graphene/pseudo/C.pbe-n-rrkjus_psl.0.1.UPF
     MD5 check sum: 96a6a315177d77e6c95bf6fd3870f9e3
     Pseudo is Ultrasoft + core correction, Zval =  4.0
     Generated using &quot;atomic&quot; code by A. Dal Corso  v.6.3MaX
     Using radial grid of 1073 points,  4 beta functions with: 
                l(1) =   0
                l(2) =   0
                l(3) =   1
                l(4) =   1
     Q(r) pseudized with 0 coefficients 


     atomic species   valence    mass     pseudopotential
     C                 4.00    12.01070     C ( 1.00)

      6 Sym. Ops. (no inversion) found



   Cartesian axes

     site n.     atom                  positions (alat units)
         1        C      tau(   1) = (   0.0000000   0.5773503   3.0439478  )
         2        C      tau(   2) = (   0.5000000   0.2886751   3.0439478  )
         3        C      tau(   3) = (   0.0000000   0.0000000   3.2468777  )
         4        C      tau(   4) = (   0.0000000   0.5773503   3.2468777  )

     number of k points=    10  Marzari-Vanderbilt smearing, width (Ry)=  0.0200
                       cart. coord. in units 2pi/alat
        k(    1) = (   0.0000000   0.0000000   0.0000000), wk =   0.0312500
        k(    2) = (   0.0000000   0.1443376   0.0000000), wk =   0.1875000
        k(    3) = (   0.0000000   0.2886751   0.0000000), wk =   0.1875000
        k(    4) = (   0.0000000   0.4330127   0.0000000), wk =   0.1875000
        k(    5) = (   0.0000000  -0.5773503   0.0000000), wk =   0.0937500
        k(    6) = (   0.1250000   0.2165064   0.0000000), wk =   0.1875000
        k(    7) = (   0.1250000   0.3608439   0.0000000), wk =   0.3750000
        k(    8) = (   0.1250000   0.5051815   0.0000000), wk =   0.3750000
        k(    9) = (   0.2500000   0.4330127   0.0000000), wk =   0.1875000
        k(   10) = (   0.2500000   0.5773503   0.0000000), wk =   0.1875000

     Dense  grid:     6489 G-vectors     FFT dimensions: (  15,  15,  81)

     Estimated max dynamical RAM per process >       1.81 MB

     Estimated total dynamical RAM >      12.68 MB

     Check: negative core charge=   -0.000310

     Initial potential from superposition of free atoms

     starting charge      15.9998, renormalised to      16.0000

     negative rho (up, down):  1.235E-02 0.000E+00
     Starting wfcs are   16 randomized atomic wfcs

     total cpu time spent up to now is        0.3 secs

     per-process dynamical memory:     7.7 Mb

     Self-consistent Calculation

     iteration #  1     ecut=    20.00 Ry     beta= 0.70
     Davidson diagonalization with overlap
     ethr =  1.00E-02,  avg # of iterations =  4.5

     negative rho (up, down):  1.065E-01 0.000E+00

     total cpu time spent up to now is        0.4 secs

     total energy              =     -32.07342149 Ry
     estimated scf accuracy    <       3.71715218 Ry

     iteration #  2     ecut=    20.00 Ry     beta= 0.70
     Davidson diagonalization with overlap
     ethr =  1.00E-02,  avg # of iterations =  5.2

     negative rho (up, down):  3.450E-03 0.000E+00

     total cpu time spent up to now is        0.5 secs

     total energy              =     -31.05466361 Ry
     estimated scf accuracy    <       7.68742481 Ry

     iteration #  3     ecut=    20.00 Ry     beta= 0.70
     Davidson diagonalization with overlap
     ethr =  1.00E-02,  avg # of iterations =  4.6

     negative rho (up, down):  9.711E-03 0.000E+00

     total cpu time spent up to now is        0.7 secs

     total energy              =     -33.61355266 Ry
     estimated scf accuracy    <       0.39693315 Ry

     iteration #  4     ecut=    20.00 Ry     beta= 0.70
     Davidson diagonalization with overlap
     ethr =  2.48E-03,  avg # of iterations =  2.1

     negative rho (up, down):  2.165E-02 0.000E+00

     total cpu time spent up to now is        0.7 secs

     total energy              =     -33.57701638 Ry
     estimated scf accuracy    <       0.16725879 Ry

     iteration #  5     ecut=    20.00 Ry     beta= 0.70
     Davidson diagonalization with overlap
     ethr =  1.05E-03,  avg # of iterations =  1.9

     negative rho (up, down):  3.879E-02 0.000E+00

     total cpu time spent up to now is        0.8 secs

     total energy              =     -33.54374420 Ry
     estimated scf accuracy    <       0.07878205 Ry

     iteration #  6     ecut=    20.00 Ry     beta= 0.70
     Davidson diagonalization with overlap
     ethr =  4.92E-04,  avg # of iterations =  4.7

     negative rho (up, down):  5.874E-02 0.000E+00

     total cpu time spent up to now is        0.9 secs

     total energy              =     -33.52915806 Ry
     estimated scf accuracy    <       0.02850154 Ry

     iteration #  7     ecut=    20.00 Ry     beta= 0.70
     Davidson diagonalization with overlap
     ethr =  1.78E-04,  avg # of iterations =  5.3

     negative rho (up, down):  8.908E-02 0.000E+00

     total cpu time spent up to now is        1.0 secs

     total energy              =     -33.52631451 Ry
     estimated scf accuracy    <       0.00525663 Ry

     iteration #  8     ecut=    20.00 Ry     beta= 0.70
     Davidson diagonalization with overlap
     ethr =  3.29E-05,  avg # of iterations = 11.6

     negative rho (up, down):  8.166E-02 0.000E+00

     total cpu time spent up to now is        1.2 secs

     total energy              =     -33.52675529 Ry
     estimated scf accuracy    <       0.00062838 Ry

     iteration #  9     ecut=    20.00 Ry     beta= 0.70
     Davidson diagonalization with overlap
     ethr =  3.93E-06,  avg # of iterations =  9.0

     negative rho (up, down):  8.095E-02 0.000E+00

     total cpu time spent up to now is        1.4 secs

     total energy              =     -33.52681079 Ry
     estimated scf accuracy    <       0.00002356 Ry

     iteration # 10     ecut=    20.00 Ry     beta= 0.70
     Davidson diagonalization with overlap
     ethr =  1.47E-07,  avg # of iterations =  4.1

     negative rho (up, down):  8.026E-02 0.000E+00

     total cpu time spent up to now is        1.5 secs

     total energy              =     -33.52681456 Ry
     estimated scf accuracy    <       0.00000318 Ry

     iteration # 11     ecut=    20.00 Ry     beta= 0.70
     Davidson diagonalization with overlap
     ethr =  1.99E-08,  avg # of iterations =  5.4

     negative rho (up, down):  8.035E-02 0.000E+00

     total cpu time spent up to now is        1.6 secs

     total energy              =     -33.52681554 Ry
     estimated scf accuracy    <       0.00000014 Ry

     iteration # 12     ecut=    20.00 Ry     beta= 0.70
     Davidson diagonalization with overlap
     ethr =  8.85E-10,  avg # of iterations =  3.8

     negative rho (up, down):  8.036E-02 0.000E+00

     total cpu time spent up to now is        1.7 secs

     total energy              =     -33.52681551 Ry
     estimated scf accuracy    <       0.00000002 Ry

     iteration # 13     ecut=    20.00 Ry     beta= 0.70
     Davidson diagonalization with overlap
     ethr =  1.21E-10,  avg # of iterations =  2.2

     negative rho (up, down):  8.036E-02 0.000E+00

     total cpu time spent up to now is        1.8 secs

     End of self-consistent calculation

          k = 0.0000 0.0000 0.0000 (   815 PWs)   bands (ev):

   -31.3485 -23.6274 -23.6274 -15.6337  -9.9251  -9.9251  -5.8754   2.2018
     2.4019   3.6213   4.4975   5.0447

          k = 0.0000 0.1443 0.0000 (   821 PWs)   bands (ev):

   -31.2228 -24.2707 -23.9016 -15.2878  -9.4148  -8.5499  -5.5615   2.6990
     2.9143   3.9963   4.5813   5.2719

          k = 0.0000 0.2887 0.0000 (   796 PWs)   bands (ev):

   -31.0084 -25.1673 -24.2604 -13.9594  -7.2244  -4.6994  -4.6541   0.5281
     4.1302   4.4548   4.7038   5.5963

          k = 0.0000 0.4330 0.0000 (   808 PWs)   bands (ev):

   -30.8292 -26.2981 -25.0192 -11.7672  -6.1487  -5.0096  -2.4956   0.1132
     2.1079   3.5155   6.5148   6.7792

          k = 0.0000-0.5774 0.0000 (   806 PWs)   bands (ev):

   -30.7129 -26.6543 -25.3782  -9.0143  -8.3591  -4.9500  -1.7429   0.0739
     3.0747   3.9412   4.1111  10.1194

          k = 0.1250 0.2165 0.0000 (   811 PWs)   bands (ev):

   -31.1236 -25.3348 -23.9879 -14.3947  -8.3383  -5.7050  -4.9483   2.8452
     3.4118   3.7565   3.9649   5.0961

          k = 0.1250 0.3608 0.0000 (   802 PWs)   bands (ev):

   -30.8887 -26.6053 -24.1604 -12.6116  -6.7055  -4.3272  -1.5736  -1.1039
     1.8423   3.1403   5.7139   6.0044

          k = 0.1250 0.5052 0.0000 (   795 PWs)   bands (ev):

   -30.5578 -27.4308 -24.3713  -9.9663  -6.6299  -4.9828  -2.0404  -0.3806
     0.8109   3.8976   7.4157   8.8948

          k = 0.2500 0.4330 0.0000 (   799 PWs)   bands (ev):

   -30.4642 -28.0522 -23.7863 -10.3941  -5.4917  -4.0349  -3.5171  -1.4976
     0.2744   3.6534   8.0665   8.5538

          k = 0.2500 0.5774 0.0000 (   794 PWs)   bands (ev):

   -29.9080 -28.7798 -23.6467  -7.7421  -7.0957  -4.1221  -3.9762  -1.6312
    -1.4905   6.9208   8.4405  11.2171

     the Fermi energy is     0.6678 ev

!    total energy              =     -33.52681556 Ry
     estimated scf accuracy    <          6.6E-10 Ry
     smearing contrib. (-TS)   =       0.00001869 Ry
     internal energy E=F+TS    =     -33.52683425 Ry

     The total energy is F=E-TS. E is the sum of the following terms:
     one-electron contribution =    -613.02419592 Ry
     hartree contribution      =     309.52170813 Ry
     xc contribution           =     -19.34593641 Ry
     ewald contribution        =     289.32158995 Ry

     convergence has been achieved in  13 iterations

     negative rho (up, down):  8.036E-02 0.000E+00

     Forces acting on atoms (cartesian axes, Ry/au):

     atom    1 type  1   force =     0.00000000   -0.00000000  -28.28264307
     atom    2 type  1   force =     0.00000000    0.00000000   -0.58974184
     atom    3 type  1   force =     0.00000000    0.00000000    0.58697345
     atom    4 type  1   force =     0.00000000    0.00000000   28.28541145

     Total force =    40.008308     Total SCF correction =     0.000102


     Computing stress (Cartesian axis) and pressure


     negative rho (up, down):  8.036E-02 0.000E+00
          total   stress  (Ry/bohr**3)                   (kbar)     P=     1711.08
  -0.00204214   0.00000000   0.00000000         -300.41        0.00        0.00
   0.00000000  -0.00204214   0.00000000            0.00     -300.41        0.00
   0.00000000   0.00000000   0.03897930            0.00        0.00     5734.05


     Writing all to output data dir /home/rfa/Skripsi/DFT/dft-graphene/tmp/gr-ab-2L.save/ :
     XML data file, charge density, pseudopotentials, collected wavefunctions

     init_run     :      0.12s CPU      0.15s WALL (       1 calls)
     electrons    :      2.62s CPU      1.54s WALL (       1 calls)
     forces       :      0.01s CPU      0.01s WALL (       1 calls)
     stress       :      0.03s CPU      0.03s WALL (       1 calls)

     Called by init_run:
     wfcinit      :      0.07s CPU      0.05s WALL (       1 calls)
     potinit      :      0.00s CPU      0.00s WALL (       1 calls)
     hinit0       :      0.04s CPU      0.08s WALL (       1 calls)

     Called by electrons:
     c_bands      :      2.25s CPU      1.30s WALL (      13 calls)
     sum_band     :      0.30s CPU      0.17s WALL (      13 calls)
     v_of_rho     :      0.04s CPU      0.03s WALL (      14 calls)
     newd         :      0.01s CPU      0.02s WALL (      14 calls)
     mix_rho      :      0.02s CPU      0.01s WALL (      13 calls)

     Called by c_bands:
     init_us_2    :      0.03s CPU      0.02s WALL (     290 calls)
     cegterg      :      2.13s CPU      1.21s WALL (     130 calls)

     Called by *egterg:
     cdiaghg      :      0.59s CPU      0.31s WALL (     774 calls)
     h_psi        :      1.27s CPU      0.75s WALL (     784 calls)
     s_psi        :      0.03s CPU      0.02s WALL (     784 calls)
     g_psi        :      0.01s CPU      0.01s WALL (     644 calls)

     Called by h_psi:
     h_psi:calbec :      0.12s CPU      0.07s WALL (     784 calls)
     vloc_psi     :      1.09s CPU      0.64s WALL (     784 calls)
     add_vuspsi   :      0.04s CPU      0.02s WALL (     784 calls)

     General routines
     calbec       :      0.16s CPU      0.10s WALL (    1084 calls)
     fft          :      0.04s CPU      0.08s WALL (     179 calls)
     ffts         :      0.00s CPU      0.00s WALL (      13 calls)
     fftw         :      1.07s CPU      0.62s WALL (   11074 calls)

     Parallel routines

     PWSCF        :      2.89s CPU      1.95s WALL


   This run was terminated on:  14:54:50  16Apr2025            

=------------------------------------------------------------------------------=
   JOB DONE.
=------------------------------------------------------------------------------=
