
     Program PWSCF v.7.4.1 starts on 16Apr2025 at 15: 8:45 

     This program is part of the open-source Quantum ESPRESSO suite
     for quantum simulation of materials; please cite
         "P. Giannozzi et al., J. Phys.:Condens. Matter 21 395502 (2009);
         "P. Giannozzi et al., J. Phys.:Condens. Matter 29 465901 (2017);
         "P. Giannozzi et al., J. Chem. Phys. 152 154105 (2020);
          URL http://www.quantum-espresso.org", 
     in publications or presentations arising from this work. More details at
     http://www.quantum-espresso.org/quote

     Parallel version (MPI), running on     7 processors

     MPI processes distributed on     1 nodes
     14928 MiB available memory on the printing compute node when the environment starts

     Waiting for input...
     Reading input from standard input

     Current dimensions of program PWSCF are:
     Max number of different atomic species (ntypx) = 10
     Max number of k-points (npk) =  40000
     Max angular momentum in pseudopotentials (lmaxx) =  4

     R & G space division:  proc/nbgrp/npool/nimage =       7
     Subspace diagonalization in iterative solution of the eigenvalue problem:
     a serial algorithm will be used


     Parallelization info
     --------------------
     sticks:   dense  smooth     PW     G-vecs:    dense   smooth      PW
     Min          21      21      7                 1209     1209     253
     Max          22      22      8                 1218     1218     266
     Sum         151     151     55                 8507     8507    1811

     Using Slab Decomposition



     bravais-lattice index     =            4
     lattice parameter (alat)  =       4.6561  a.u.
     unit-cell volume          =     532.1899 (a.u.)^3
     number of atoms/cell      =            6
     number of atomic types    =            1
     number of electrons       =        24.00
     number of Kohn-Sham states=           16
     kinetic-energy cutoff     =      24.0000  Ry
     charge density cutoff     =      96.0000  Ry
     scf convergence threshold =      1.0E-08
     mixing beta               =       0.7000
     number of iterations used =            8  plain     mixing
     Exchange-correlation= PBE
                           (   1   4   3   4   0   0   0)

     celldm(1)=   4.656107  celldm(2)=   0.000000  celldm(3)=   6.087896
     celldm(4)=   0.000000  celldm(5)=   0.000000  celldm(6)=   0.000000

     crystal axes: (cart. coord. in units of alat)
               a(1) = (   1.000000   0.000000   0.000000 )  
               a(2) = (  -0.500000   0.866025   0.000000 )  
               a(3) = (   0.000000   0.000000   6.087896 )  

     reciprocal axes: (cart. coord. in units 2 pi/alat)
               b(1) = (  1.000000  0.577350 -0.000000 )  
               b(2) = (  0.000000  1.154701  0.000000 )  
               b(3) = (  0.000000 -0.000000  0.164260 )  


     PseudoPot. # 1 for C  read from file:
     /run/media/rfa/SATA/Skripsi/DFT/Graphene-copy/pseudo/C.pbe-n-rrkjus_psl.0.1.UPF
     MD5 check sum: 96a6a315177d77e6c95bf6fd3870f9e3
     Pseudo is Ultrasoft + core correction, Zval =  4.0
     Generated using &quot;atomic&quot; code by A. Dal Corso  v.6.3MaX
     Using radial grid of 1073 points,  4 beta functions with: 
                l(1) =   0
                l(2) =   0
                l(3) =   1
                l(4) =   1
     Q(r) pseudized with 0 coefficients 


     atomic species   valence    mass     pseudopotential
     C                 4.00    12.01070     C ( 1.00)

      6 Sym. Ops. (no inversion) found



   Cartesian axes

     site n.     atom                  positions (alat units)
         1        C      tau(   1) = (   0.0000000   0.5773503   3.0439478  )
         2        C      tau(   2) = (   0.5000000   0.2886751   3.0439478  )
         3        C      tau(   3) = (   0.0000000   0.0000000   3.2468777  )
         4        C      tau(   4) = (   0.0000000   0.5773503   3.2468777  )
         5        C      tau(   5) = (   0.0000000   0.5773503   3.4498075  )
         6        C      tau(   6) = (   0.5000000   0.2886751   3.4498075  )

     number of k points=    19  Marzari-Vanderbilt smearing, width (Ry)=  0.0200
                       cart. coord. in units 2pi/alat
        k(    1) = (   0.0000000   0.0000000   0.0000000), wk =   0.0138889
        k(    2) = (   0.0000000   0.0962250   0.0000000), wk =   0.0833333
        k(    3) = (   0.0000000   0.1924501   0.0000000), wk =   0.0833333
        k(    4) = (   0.0000000   0.2886751   0.0000000), wk =   0.0833333
        k(    5) = (   0.0000000   0.3849002   0.0000000), wk =   0.0833333
        k(    6) = (   0.0000000   0.4811252   0.0000000), wk =   0.0833333
        k(    7) = (   0.0000000  -0.5773503   0.0000000), wk =   0.0416667
        k(    8) = (   0.0833333   0.1443376   0.0000000), wk =   0.0833333
        k(    9) = (   0.0833333   0.2405626   0.0000000), wk =   0.1666667
        k(   10) = (   0.0833333   0.3367877   0.0000000), wk =   0.1666667
        k(   11) = (   0.0833333   0.4330127   0.0000000), wk =   0.1666667
        k(   12) = (   0.0833333   0.5292377   0.0000000), wk =   0.1666667
        k(   13) = (   0.1666667   0.2886751   0.0000000), wk =   0.0833333
        k(   14) = (   0.1666667   0.3849002   0.0000000), wk =   0.1666667
        k(   15) = (   0.1666667   0.4811252   0.0000000), wk =   0.1666667
        k(   16) = (   0.1666667   0.5773503   0.0000000), wk =   0.0833333
        k(   17) = (   0.2500000   0.4330127   0.0000000), wk =   0.0833333
        k(   18) = (   0.2500000   0.5292377   0.0000000), wk =   0.1666667
        k(   19) = (   0.3333333   0.5773503   0.0000000), wk =   0.0277778

     Dense  grid:     8507 G-vectors     FFT dimensions: (  15,  15,  90)

     Estimated max dynamical RAM per process >       2.88 MB

     Estimated total dynamical RAM >      20.17 MB

     Check: negative core charge=   -0.000162

     Initial potential from superposition of free atoms

     starting charge      23.9998, renormalised to      24.0000

     negative rho (up, down):  1.145E-02 0.000E+00
     Starting wfcs are   24 randomized atomic wfcs

     total cpu time spent up to now is        0.3 secs

     per-process dynamical memory:     8.7 Mb

     Self-consistent Calculation

     iteration #  1     ecut=    24.00 Ry     beta= 0.70
     Davidson diagonalization with overlap
     ethr =  1.00E-02,  avg # of iterations =  5.6

     negative rho (up, down):  1.009E-01 0.000E+00

     total cpu time spent up to now is        0.6 secs

     total energy              =     -39.91767620 Ry
     estimated scf accuracy    <      13.96569357 Ry

     iteration #  2     ecut=    24.00 Ry     beta= 0.70
     Davidson diagonalization with overlap
     ethr =  1.00E-02,  avg # of iterations = 10.2

     negative rho (up, down):  2.109E-04 0.000E+00

     total cpu time spent up to now is        0.8 secs

     total energy              =     -32.27695273 Ry
     estimated scf accuracy    <      43.41207655 Ry

     iteration #  3     ecut=    24.00 Ry     beta= 0.70
     Davidson diagonalization with overlap
     ethr =  1.00E-02,  avg # of iterations =  9.1

     negative rho (up, down):  1.992E-03 0.000E+00

     total cpu time spent up to now is        1.1 secs

     total energy              =     -45.89099687 Ry
     estimated scf accuracy    <       2.18179939 Ry

     iteration #  4     ecut=    24.00 Ry     beta= 0.70
     Davidson diagonalization with overlap
     ethr =  9.09E-03,  avg # of iterations =  1.6

     negative rho (up, down):  7.768E-03 0.000E+00

     total cpu time spent up to now is        1.2 secs

     total energy              =     -45.75916274 Ry
     estimated scf accuracy    <       0.96604234 Ry

     iteration #  5     ecut=    24.00 Ry     beta= 0.70
     Davidson diagonalization with overlap
     ethr =  4.03E-03,  avg # of iterations =  1.5

     negative rho (up, down):  1.528E-02 0.000E+00

     total cpu time spent up to now is        1.3 secs

     total energy              =     -45.63620396 Ry
     estimated scf accuracy    <       0.59079859 Ry

     iteration #  6     ecut=    24.00 Ry     beta= 0.70
     Davidson diagonalization with overlap
     ethr =  2.46E-03,  avg # of iterations =  2.1

     negative rho (up, down):  3.080E-02 0.000E+00

     total cpu time spent up to now is        1.4 secs

     total energy              =     -45.51635097 Ry
     estimated scf accuracy    <       0.39652390 Ry

     iteration #  7     ecut=    24.00 Ry     beta= 0.70
     Davidson diagonalization with overlap
     ethr =  1.65E-03,  avg # of iterations =  2.4

     negative rho (up, down):  4.485E-02 0.000E+00

     total cpu time spent up to now is        1.5 secs

     total energy              =     -45.47550126 Ry
     estimated scf accuracy    <       0.17776325 Ry

     iteration #  8     ecut=    24.00 Ry     beta= 0.70
     Davidson diagonalization with overlap
     ethr =  7.41E-04,  avg # of iterations =  4.3

     negative rho (up, down):  9.289E-02 0.000E+00

     total cpu time spent up to now is        1.7 secs

     total energy              =     -45.41108603 Ry
     estimated scf accuracy    <       0.09752519 Ry

     iteration #  9     ecut=    24.00 Ry     beta= 0.70
     Davidson diagonalization with overlap
     ethr =  4.06E-04,  avg # of iterations =  7.4

     negative rho (up, down):  1.144E-01 0.000E+00

     total cpu time spent up to now is        1.9 secs

     total energy              =     -45.41419181 Ry
     estimated scf accuracy    <       0.00740554 Ry

     iteration # 10     ecut=    24.00 Ry     beta= 0.70
     Davidson diagonalization with overlap
     ethr =  3.09E-05,  avg # of iterations = 12.6

     negative rho (up, down):  1.132E-01 0.000E+00

     total cpu time spent up to now is        2.1 secs

     total energy              =     -45.41615712 Ry
     estimated scf accuracy    <       0.00040066 Ry

     iteration # 11     ecut=    24.00 Ry     beta= 0.70
     Davidson diagonalization with overlap
     c_bands:  1 eigenvalues not converged
     ethr =  1.67E-06,  avg # of iterations =  8.2

     negative rho (up, down):  1.135E-01 0.000E+00

     total cpu time spent up to now is        2.4 secs

     total energy              =     -45.41634664 Ry
     estimated scf accuracy    <       0.00004303 Ry

     iteration # 12     ecut=    24.00 Ry     beta= 0.70
     Davidson diagonalization with overlap
     ethr =  1.79E-07,  avg # of iterations =  4.6

     negative rho (up, down):  1.100E-01 0.000E+00

     total cpu time spent up to now is        2.5 secs

     total energy              =     -45.41626170 Ry
     estimated scf accuracy    <       0.00017581 Ry

     iteration # 13     ecut=    24.00 Ry     beta= 0.70
     Davidson diagonalization with overlap
     ethr =  1.79E-07,  avg # of iterations =  8.6

     negative rho (up, down):  1.127E-01 0.000E+00

     total cpu time spent up to now is        2.8 secs

     total energy              =     -45.41626641 Ry
     estimated scf accuracy    <       0.00029966 Ry

     iteration # 14     ecut=    24.00 Ry     beta= 0.70
     Davidson diagonalization with overlap
     ethr =  1.79E-07,  avg # of iterations =  7.7

     negative rho (up, down):  1.122E-01 0.000E+00

     total cpu time spent up to now is        3.0 secs

     total energy              =     -45.41635240 Ry
     estimated scf accuracy    <       0.00001379 Ry

     iteration # 15     ecut=    24.00 Ry     beta= 0.70
     Davidson diagonalization with overlap
     ethr =  5.75E-08,  avg # of iterations =  2.0

     negative rho (up, down):  1.122E-01 0.000E+00

     total cpu time spent up to now is        3.1 secs

     total energy              =     -45.41635561 Ry
     estimated scf accuracy    <       0.00000006 Ry

     iteration # 16     ecut=    24.00 Ry     beta= 0.70
     Davidson diagonalization with overlap
     ethr =  2.63E-10,  avg # of iterations =  5.8

     negative rho (up, down):  1.122E-01 0.000E+00

     total cpu time spent up to now is        3.3 secs

     total energy              =     -45.41635567 Ry
     estimated scf accuracy    <       0.00000017 Ry

     iteration # 17     ecut=    24.00 Ry     beta= 0.70
     Davidson diagonalization with overlap
     ethr =  2.63E-10,  avg # of iterations =  2.9

     negative rho (up, down):  1.122E-01 0.000E+00

     total cpu time spent up to now is        3.5 secs

     total energy              =     -45.41635566 Ry
     estimated scf accuracy    <       0.00000001 Ry

     iteration # 18     ecut=    24.00 Ry     beta= 0.70
     Davidson diagonalization with overlap
     ethr =  5.69E-11,  avg # of iterations =  4.3

     negative rho (up, down):  1.122E-01 0.000E+00

     total cpu time spent up to now is        3.6 secs

     End of self-consistent calculation

          k = 0.0000 0.0000 0.0000 (  1077 PWs)   bands (ev):

   -34.6589 -30.5669 -30.5669 -19.5435 -14.7747 -14.7747 -10.8319  -3.8815
    -3.3547  -3.3547  -1.7155   3.6129   3.7324   5.1928   5.2181   7.3514

          k = 0.0000 0.0962 0.0000 (  1089 PWs)   bands (ev):

   -34.9011 -30.7672 -30.3181 -19.4163 -14.8211 -14.2315 -10.5347  -4.4410
    -3.7297  -3.4246  -1.7683   3.3702   3.9507   4.7741   5.4051   6.9651

          k = 0.0000 0.1925 0.0000 (  1078 PWs)   bands (ev):

   -35.3865 -31.2698 -29.7292 -18.9339 -14.7472 -12.7050  -9.5165  -5.7494
    -4.5130  -3.3205  -1.2810   2.8731   4.6238   5.1190   6.0284   6.8664

          k = 0.0000 0.2887 0.0000 (  1064 PWs)   bands (ev):

   -35.9026 -31.8142 -29.1558 -18.1400 -14.2651 -10.4153  -8.1750  -7.6020
    -5.3613  -3.1667  -1.1801   2.8020   4.0802   5.7533   6.1503   7.0063

          k = 0.0000 0.3849 0.0000 (  1044 PWs)   bands (ev):

   -36.3056 -32.3198 -28.6911 -17.0690 -13.2637  -9.5827  -7.6986  -6.6099
    -6.0807  -2.9017  -2.2450   1.8024   3.1220   7.3382   7.6407   8.2776

          k = 0.0000 0.4811 0.0000 (  1052 PWs)   bands (ev):

   -36.7092 -32.7322 -28.4142 -15.8596 -12.0364 -11.3968  -6.5370  -5.2933
    -5.1928  -4.1641  -2.7483   0.0343   3.4806   6.8466   9.3637   9.4448

          k = 0.0000-0.5774 0.0000 (  1062 PWs)   bands (ev):

   -36.8315 -32.8746 -28.3502 -15.1083 -12.3813 -11.3244  -6.7050  -5.5222
    -4.4615  -3.9773  -2.7660  -0.8389   3.6331   5.5411  10.6194  11.0754

          k = 0.0833 0.1443 0.0000 (  1077 PWs)   bands (ev):

   -35.2434 -31.1514 -29.8500 -19.0690 -14.8422 -13.1453  -9.7886  -5.1377
    -4.5044  -3.2376  -1.3317   3.0495   4.4029   4.9425   5.8379   7.2778

          k = 0.0833 0.2406 0.0000 (  1065 PWs)   bands (ev):

   -35.6886 -31.7760 -29.1929 -18.4488 -14.6362 -11.1432  -8.6862  -6.6003
    -5.5715  -3.0330  -0.9926   2.9496   5.0223   5.3182   5.7251   6.6496

          k = 0.0833 0.3368 0.0000 (  1061 PWs)   bands (ev):

   -36.1343 -32.4074 -28.6064 -17.5462 -14.0010  -8.6167  -8.5537  -7.3165
    -6.4000  -2.8398  -1.6233   2.5488   3.2230   6.6454   7.0031   7.5069

          k = 0.0833 0.4330 0.0000 (  1047 PWs)   bands (ev):

   -36.5055 -32.8787 -28.1414 -16.3545 -12.8994 -10.4579  -6.9407  -6.1418
    -5.7185  -3.0398  -2.5495   0.7037   3.7037   7.8195   8.4951   8.6759

          k = 0.0833 0.5292 0.0000 (  1043 PWs)   bands (ev):

   -36.6959 -33.1884 -27.9090 -15.2185 -11.9878 -11.8445  -7.2395  -5.8350
    -4.5066  -2.8532  -2.4433  -0.5720   4.0441   6.0054  10.3446  10.5992

          k = 0.1667 0.2887 0.0000 (  1057 PWs)   bands (ev):

   -36.0250 -32.5680 -28.4250 -17.6909 -14.3745  -8.7888  -7.4914  -7.4456
    -7.3313  -2.6520  -1.2749   2.8318   3.4825   6.4220   6.7882   7.3055

          k = 0.1667 0.3849 0.0000 (  1060 PWs)   bands (ev):

   -36.3604 -33.3075 -27.6844 -16.6286 -13.7786  -9.3356  -7.9835  -6.4864
    -6.0705  -2.3103  -2.2738   1.0525   4.2510   7.5912   8.0702   8.2736

          k = 0.1667 0.4811 0.0000 (  1048 PWs)   bands (ev):

   -36.5055 -33.8154 -27.1669 -15.4464 -12.9267 -11.1008  -8.3884  -6.2199
    -4.7109  -2.1006  -1.6061  -0.1601   4.9682   6.9435   9.9455   9.9467

          k = 0.1667 0.5774 0.0000 (  1040 PWs)   bands (ev):

   -36.5140 -33.9758 -26.9681 -14.6819 -12.3856 -12.0518  -8.5270  -6.7440
    -3.9734  -2.0289  -1.3669   0.3349   5.2581   5.7990  10.3860  10.9141

          k = 0.2500 0.4330 0.0000 (  1052 PWs)   bands (ev):

   -36.3763 -34.1213 -26.8171 -15.5421 -13.4428 -10.2387  -9.3722  -6.2910
    -4.8314  -1.9846  -1.0871  -0.0262   5.5338   7.4350   9.7127   9.8081

          k = 0.2500 0.5292 0.0000 (  1041 PWs)   bands (ev):

   -36.2675 -34.6384 -26.2646 -14.4774 -13.0434 -11.4559  -9.8624  -7.2098
    -3.6875  -1.8167  -1.4959   2.2386   6.5366   6.5857   9.8227  10.1854

          k = 0.3333 0.5774 0.0000 (  1050 PWs)   bands (ev):

   -36.1301 -35.0509 -25.9219 -13.9697 -13.1633 -11.4591 -10.7658  -7.7499
    -2.7241  -2.4969  -1.7529   4.9092   6.2757   7.7488   7.9455   8.9746

     the Fermi energy is     3.1986 ev

!    total energy              =     -45.41635566 Ry
     estimated scf accuracy    <          2.5E-09 Ry
     smearing contrib. (-TS)   =       0.00005127 Ry
     internal energy E=F+TS    =     -45.41640693 Ry

     The total energy is F=E-TS. E is the sum of the following terms:
     one-electron contribution =   -1333.23625134 Ry
     hartree contribution      =     673.21952016 Ry
     xc contribution           =     -32.06458041 Ry
     ewald contribution        =     646.66490466 Ry

     convergence has been achieved in  18 iterations

     negative rho (up, down):  1.122E-01 0.000E+00

     Forces acting on atoms (cartesian axes, Ry/au):

     atom    1 type  1   force =     0.00000000    0.00000000  -27.85244944
     atom    2 type  1   force =     0.00000000   -0.00000000   -3.00868246
     atom    3 type  1   force =    -0.00000000   -0.00000000   -0.00000117
     atom    4 type  1   force =     0.00000000   -0.00000000    0.00000266
     atom    5 type  1   force =     0.00000000    0.00000000   27.85245124
     atom    6 type  1   force =     0.00000000    0.00000000    3.00867917

     Total force =    39.618459     Total SCF correction =     0.000033


     Computing stress (Cartesian axis) and pressure


     negative rho (up, down):  1.122E-01 0.000E+00
          total   stress  (Ry/bohr**3)                   (kbar)     P=     5413.60
   0.00828310   0.00000000   0.00000000         1218.49        0.00        0.00
   0.00000000   0.00828310   0.00000000            0.00     1218.49        0.00
   0.00000000   0.00000000   0.09383648            0.00        0.00    13803.82


     Writing all to output data dir /run/media/rfa/SATA/Skripsi/DFT/Graphene-copy/tmp/gr-ab-3L.save/ :
     XML data file, charge density, pseudopotentials, collected wavefunctions

     init_run     :      0.22s CPU      0.28s WALL (       1 calls)
     electrons    :      5.87s CPU      3.29s WALL (       1 calls)
     forces       :      0.03s CPU      0.01s WALL (       1 calls)
     stress       :      0.08s CPU      0.05s WALL (       1 calls)

     Called by init_run:
     wfcinit      :      0.10s CPU      0.06s WALL (       1 calls)
     potinit      :      0.00s CPU      0.00s WALL (       1 calls)
     hinit0       :      0.11s CPU      0.21s WALL (       1 calls)

     Called by electrons:
     c_bands      :      5.21s CPU      2.91s WALL (      18 calls)
     sum_band     :      0.53s CPU      0.30s WALL (      18 calls)
     v_of_rho     :      0.06s CPU      0.03s WALL (      19 calls)
     newd         :      0.04s CPU      0.02s WALL (      19 calls)
     mix_rho      :      0.02s CPU      0.01s WALL (      18 calls)

     Called by c_bands:
     init_us_2    :      0.11s CPU      0.05s WALL (     741 calls)
     cegterg      :      4.93s CPU      2.73s WALL (     342 calls)

     Called by *egterg:
     cdiaghg      :      1.44s CPU      0.74s WALL (    2263 calls)
     h_psi        :      2.86s CPU      1.62s WALL (    2282 calls)
     s_psi        :      0.09s CPU      0.05s WALL (    2282 calls)
     g_psi        :      0.04s CPU      0.02s WALL (    1921 calls)

     Called by h_psi:
     h_psi:calbec :      0.30s CPU      0.16s WALL (    2282 calls)
     vloc_psi     :      2.39s CPU      1.35s WALL (    2282 calls)
     add_vuspsi   :      0.11s CPU      0.06s WALL (    2282 calls)

     General routines
     calbec       :      0.37s CPU      0.20s WALL (    2947 calls)
     fft          :      0.12s CPU      0.21s WALL (     234 calls)
     ffts         :      0.00s CPU      0.00s WALL (      18 calls)
     fftw         :      2.30s CPU      1.28s WALL (   42232 calls)

     Parallel routines

     PWSCF        :      6.27s CPU      3.80s WALL


   This run was terminated on:  15: 8:48  16Apr2025            

=------------------------------------------------------------------------------=
   JOB DONE.
=------------------------------------------------------------------------------=
