
     Program PWSCF v.7.4.1 starts on 16Apr2025 at 15: 9:26 

     This program is part of the open-source Quantum ESPRESSO suite
     for quantum simulation of materials; please cite
         "P. Giannozzi et al., J. Phys.:Condens. Matter 21 395502 (2009);
         "P. Giannozzi et al., J. Phys.:Condens. Matter 29 465901 (2017);
         "P. Giannozzi et al., J. Chem. Phys. 152 154105 (2020);
          URL http://www.quantum-espresso.org", 
     in publications or presentations arising from this work. More details at
     http://www.quantum-espresso.org/quote

     Parallel version (MPI), running on     7 processors

     MPI processes distributed on     1 nodes
     14831 MiB available memory on the printing compute node when the environment starts

     Waiting for input...
     Reading input from standard input

     Current dimensions of program PWSCF are:
     Max number of different atomic species (ntypx) = 10
     Max number of k-points (npk) =  40000
     Max angular momentum in pseudopotentials (lmaxx) =  4

     R & G space division:  proc/nbgrp/npool/nimage =       7
     Subspace diagonalization in iterative solution of the eigenvalue problem:
     a serial algorithm will be used


     Parallelization info
     --------------------
     sticks:   dense  smooth     PW     G-vecs:    dense   smooth      PW
     Min          37      37     12                 3088     3088     566
     Max          38      38     13                 3095     3095     589
     Sum         265     265     85                21637    21637    3993

     Using Slab Decomposition



     bravais-lattice index     =            4
     lattice parameter (alat)  =       4.6561  a.u.
     unit-cell volume          =     532.1899 (a.u.)^3
     number of atoms/cell      =            6
     number of atomic types    =            1
     number of electrons       =        24.00
     number of Kohn-Sham states=           16
     kinetic-energy cutoff     =      45.0000  Ry
     charge density cutoff     =     180.0000  Ry
     scf convergence threshold =      1.0E-08
     mixing beta               =       0.7000
     number of iterations used =            8  plain     mixing
     Exchange-correlation= PBE
                           (   1   4   3   4   0   0   0)

     celldm(1)=   4.656107  celldm(2)=   0.000000  celldm(3)=   6.087896
     celldm(4)=   0.000000  celldm(5)=   0.000000  celldm(6)=   0.000000

     crystal axes: (cart. coord. in units of alat)
               a(1) = (   1.000000   0.000000   0.000000 )  
               a(2) = (  -0.500000   0.866025   0.000000 )  
               a(3) = (   0.000000   0.000000   6.087896 )  

     reciprocal axes: (cart. coord. in units 2 pi/alat)
               b(1) = (  1.000000  0.577350 -0.000000 )  
               b(2) = (  0.000000  1.154701  0.000000 )  
               b(3) = (  0.000000 -0.000000  0.164260 )  


     PseudoPot. # 1 for C  read from file:
     /run/media/rfa/SATA/Skripsi/DFT/Graphene-copy/pseudo/C.pbe-n-rrkjus_psl.0.1.UPF
     MD5 check sum: 96a6a315177d77e6c95bf6fd3870f9e3
     Pseudo is Ultrasoft + core correction, Zval =  4.0
     Generated using &quot;atomic&quot; code by A. Dal Corso  v.6.3MaX
     Using radial grid of 1073 points,  4 beta functions with: 
                l(1) =   0
                l(2) =   0
                l(3) =   1
                l(4) =   1
     Q(r) pseudized with 0 coefficients 


     atomic species   valence    mass     pseudopotential
     C                 4.00    12.01070     C ( 1.00)

      6 Sym. Ops. (no inversion) found



   Cartesian axes

     site n.     atom                  positions (alat units)
         1        C      tau(   1) = (   0.0000000   0.5773503   3.0439478  )
         2        C      tau(   2) = (   0.5000000   0.2886751   3.0439478  )
         3        C      tau(   3) = (   0.0000000   0.0000000   3.2468777  )
         4        C      tau(   4) = (   0.0000000   0.5773503   3.2468777  )
         5        C      tau(   5) = (   0.0000000   0.5773503   3.4498075  )
         6        C      tau(   6) = (   0.5000000   0.2886751   3.4498075  )

     number of k points=    19  Marzari-Vanderbilt smearing, width (Ry)=  0.0200
                       cart. coord. in units 2pi/alat
        k(    1) = (   0.0000000   0.0000000   0.0000000), wk =   0.0138889
        k(    2) = (   0.0000000   0.0962250   0.0000000), wk =   0.0833333
        k(    3) = (   0.0000000   0.1924501   0.0000000), wk =   0.0833333
        k(    4) = (   0.0000000   0.2886751   0.0000000), wk =   0.0833333
        k(    5) = (   0.0000000   0.3849002   0.0000000), wk =   0.0833333
        k(    6) = (   0.0000000   0.4811252   0.0000000), wk =   0.0833333
        k(    7) = (   0.0000000  -0.5773503   0.0000000), wk =   0.0416667
        k(    8) = (   0.0833333   0.1443376   0.0000000), wk =   0.0833333
        k(    9) = (   0.0833333   0.2405626   0.0000000), wk =   0.1666667
        k(   10) = (   0.0833333   0.3367877   0.0000000), wk =   0.1666667
        k(   11) = (   0.0833333   0.4330127   0.0000000), wk =   0.1666667
        k(   12) = (   0.0833333   0.5292377   0.0000000), wk =   0.1666667
        k(   13) = (   0.1666667   0.2886751   0.0000000), wk =   0.0833333
        k(   14) = (   0.1666667   0.3849002   0.0000000), wk =   0.1666667
        k(   15) = (   0.1666667   0.4811252   0.0000000), wk =   0.1666667
        k(   16) = (   0.1666667   0.5773503   0.0000000), wk =   0.0833333
        k(   17) = (   0.2500000   0.4330127   0.0000000), wk =   0.0833333
        k(   18) = (   0.2500000   0.5292377   0.0000000), wk =   0.1666667
        k(   19) = (   0.3333333   0.5773503   0.0000000), wk =   0.0277778

     Dense  grid:    21637 G-vectors     FFT dimensions: (  20,  20, 125)

     Estimated max dynamical RAM per process >       7.08 MB

     Estimated total dynamical RAM >      49.54 MB

     Check: negative core charge=   -0.000015

     Initial potential from superposition of free atoms

     starting charge      23.9998, renormalised to      24.0000

     negative rho (up, down):  3.216E-04 0.000E+00
     Starting wfcs are   24 randomized atomic wfcs

     total cpu time spent up to now is        0.5 secs

     per-process dynamical memory:    11.0 Mb

     Self-consistent Calculation

     iteration #  1     ecut=    45.00 Ry     beta= 0.70
     Davidson diagonalization with overlap
     ethr =  1.00E-02,  avg # of iterations =  9.4

     negative rho (up, down):  1.523E-03 0.000E+00

     total cpu time spent up to now is        1.1 secs

     total energy              =     -40.34387407 Ry
     estimated scf accuracy    <      18.83626631 Ry

     iteration #  2     ecut=    45.00 Ry     beta= 0.70
     Davidson diagonalization with overlap
     ethr =  1.00E-02,  avg # of iterations = 11.8

     total cpu time spent up to now is        1.9 secs

     total energy              =     -39.15527120 Ry
     estimated scf accuracy    <      28.29873484 Ry

     iteration #  3     ecut=    45.00 Ry     beta= 0.70
     Davidson diagonalization with overlap
     ethr =  1.00E-02,  avg # of iterations =  8.9

     total cpu time spent up to now is        2.5 secs

     total energy              =     -48.08447896 Ry
     estimated scf accuracy    <       1.58208682 Ry

     iteration #  4     ecut=    45.00 Ry     beta= 0.70
     Davidson diagonalization with overlap
     ethr =  6.59E-03,  avg # of iterations =  3.0

     total cpu time spent up to now is        2.7 secs

     total energy              =     -47.99884438 Ry
     estimated scf accuracy    <       0.69507115 Ry

     iteration #  5     ecut=    45.00 Ry     beta= 0.70
     Davidson diagonalization with overlap
     ethr =  2.90E-03,  avg # of iterations =  2.7

     total cpu time spent up to now is        3.0 secs

     total energy              =     -48.01163533 Ry
     estimated scf accuracy    <       0.38714693 Ry

     iteration #  6     ecut=    45.00 Ry     beta= 0.70
     Davidson diagonalization with overlap
     ethr =  1.61E-03,  avg # of iterations =  3.2

     total cpu time spent up to now is        3.3 secs

     total energy              =     -48.00363903 Ry
     estimated scf accuracy    <       0.18847671 Ry

     iteration #  7     ecut=    45.00 Ry     beta= 0.70
     Davidson diagonalization with overlap
     ethr =  7.85E-04,  avg # of iterations =  4.7

     negative rho (up, down):  3.320E-05 0.000E+00

     total cpu time spent up to now is        3.6 secs

     total energy              =     -48.01160046 Ry
     estimated scf accuracy    <       0.05804271 Ry

     iteration #  8     ecut=    45.00 Ry     beta= 0.70
     Davidson diagonalization with overlap
     c_bands:  2 eigenvalues not converged
     c_bands:  2 eigenvalues not converged
     c_bands:  1 eigenvalues not converged
     ethr =  2.42E-04,  avg # of iterations = 11.8

     negative rho (up, down):  2.037E-03 0.000E+00

     total cpu time spent up to now is        4.2 secs

     total energy              =     -48.03667586 Ry
     estimated scf accuracy    <       0.00361778 Ry

     iteration #  9     ecut=    45.00 Ry     beta= 0.70
     Davidson diagonalization with overlap
     c_bands:  2 eigenvalues not converged
     c_bands:  2 eigenvalues not converged
     c_bands:  1 eigenvalues not converged
     c_bands:  2 eigenvalues not converged
     c_bands:  2 eigenvalues not converged
     c_bands:  1 eigenvalues not converged
     c_bands:  1 eigenvalues not converged
     c_bands:  2 eigenvalues not converged
     c_bands:  2 eigenvalues not converged
     c_bands:  1 eigenvalues not converged
     c_bands:  1 eigenvalues not converged
     c_bands:  2 eigenvalues not converged
     c_bands:  2 eigenvalues not converged
     c_bands:  1 eigenvalues not converged
     c_bands:  2 eigenvalues not converged
     ethr =  1.51E-05,  avg # of iterations = 19.2

     negative rho (up, down):  3.747E-03 0.000E+00

     total cpu time spent up to now is        5.2 secs

     total energy              =     -48.04484530 Ry
     estimated scf accuracy    <       0.00073454 Ry

     iteration # 10     ecut=    45.00 Ry     beta= 0.70
     Davidson diagonalization with overlap
     c_bands:  1 eigenvalues not converged
     c_bands:  1 eigenvalues not converged
     c_bands:  1 eigenvalues not converged
     c_bands:  1 eigenvalues not converged
     ethr =  3.06E-06,  avg # of iterations = 14.5

     negative rho (up, down):  2.181E-03 0.000E+00

     total cpu time spent up to now is        5.8 secs

     total energy              =     -48.04527429 Ry
     estimated scf accuracy    <       0.00007791 Ry

     iteration # 11     ecut=    45.00 Ry     beta= 0.70
     Davidson diagonalization with overlap
     c_bands:  1 eigenvalues not converged
     c_bands:  1 eigenvalues not converged
     c_bands:  1 eigenvalues not converged
     ethr =  3.25E-07,  avg # of iterations = 10.1

     negative rho (up, down):  2.320E-03 0.000E+00

     total cpu time spent up to now is        6.5 secs

     total energy              =     -48.04538844 Ry
     estimated scf accuracy    <       0.00001023 Ry

     iteration # 12     ecut=    45.00 Ry     beta= 0.70
     Davidson diagonalization with overlap
     ethr =  4.26E-08,  avg # of iterations =  9.2

     negative rho (up, down):  2.344E-03 0.000E+00

     total cpu time spent up to now is        7.1 secs

     total energy              =     -48.04538673 Ry
     estimated scf accuracy    <       0.00005162 Ry

     iteration # 13     ecut=    45.00 Ry     beta= 0.70
     Davidson diagonalization with overlap
     ethr =  4.26E-08,  avg # of iterations =  5.6

     negative rho (up, down):  2.332E-03 0.000E+00

     total cpu time spent up to now is        7.5 secs

     total energy              =     -48.04539775 Ry
     estimated scf accuracy    <       0.00000081 Ry

     iteration # 14     ecut=    45.00 Ry     beta= 0.70
     Davidson diagonalization with overlap
     ethr =  3.38E-09,  avg # of iterations =  7.5

     negative rho (up, down):  2.339E-03 0.000E+00

     total cpu time spent up to now is        8.0 secs

     total energy              =     -48.04539892 Ry
     estimated scf accuracy    <       0.00000006 Ry

     iteration # 15     ecut=    45.00 Ry     beta= 0.70
     Davidson diagonalization with overlap
     ethr =  2.52E-10,  avg # of iterations =  9.2

     negative rho (up, down):  2.339E-03 0.000E+00

     total cpu time spent up to now is        8.7 secs

     total energy              =     -48.04539904 Ry
     estimated scf accuracy    <       0.00000001 Ry

     iteration # 16     ecut=    45.00 Ry     beta= 0.70
     Davidson diagonalization with overlap
     ethr =  5.60E-11,  avg # of iterations =  5.4

     negative rho (up, down):  2.339E-03 0.000E+00

     total cpu time spent up to now is        9.0 secs

     total energy              =     -48.04539905 Ry
     estimated scf accuracy    <       0.00000001 Ry

     iteration # 17     ecut=    45.00 Ry     beta= 0.70
     Davidson diagonalization with overlap
     ethr =  4.53E-11,  avg # of iterations =  1.9

     negative rho (up, down):  2.339E-03 0.000E+00

     total cpu time spent up to now is        9.3 secs

     End of self-consistent calculation

          k = 0.0000 0.0000 0.0000 (  2629 PWs)   bands (ev):

   -33.4404 -27.6132 -27.6132 -21.2478 -13.7500 -13.7500 -11.3375  -5.6917
    -2.0911  -2.0471  -2.0471   3.2268   5.1762   6.0980   6.2828   7.9618

          k = 0.0000 0.0962 0.0000 (  2663 PWs)   bands (ev):

   -33.5553 -27.8631 -27.5510 -21.1131 -13.8246 -13.1521 -10.8542  -6.1006
    -2.4006  -2.2208  -1.9329   2.9064   5.3828   6.1190   6.4613   7.9362

          k = 0.0000 0.1925 0.0000 (  2691 PWs)   bands (ev):

   -33.8501 -28.4763 -27.4016 -20.6955 -13.7376 -11.5089  -9.7426  -7.3157
    -3.2194  -2.6195  -1.6006   2.6265   5.9793   6.6286   6.9456   7.9133

          k = 0.0000 0.2887 0.0000 (  2687 PWs)   bands (ev):

   -34.2172 -29.1922 -27.2502 -19.9490 -13.1981  -9.1358  -9.0725  -8.3830
    -4.1183  -2.9534  -1.5568   2.8382   5.0945   7.0574   7.6623   7.7821

          k = 0.0000 0.3849 0.0000 (  2706 PWs)   bands (ev):

   -34.5541 -29.8125 -27.1467 -18.9902 -12.2022 -11.0477  -6.9686  -6.3774
    -4.8627  -3.1668  -2.2590   2.2992   3.3084   8.5724   9.0976   9.1142

          k = 0.0000 0.4811 0.0000 (  2702 PWs)   bands (ev):

   -34.7848 -30.2205 -27.0948 -17.8990 -12.7930 -11.0073  -5.7640  -5.3407
    -3.7394  -3.3458  -3.2563   0.1046   3.7506   7.7681  10.5222  10.6915

          k = 0.0000-0.5774 0.0000 (  2716 PWs)   bands (ev):

   -34.8665 -30.3626 -27.0803 -17.3186 -13.6452 -10.3621  -5.5047  -5.4396
    -3.6325  -3.3035  -2.4412  -0.9177   3.9293   6.5420  11.4541  11.5389

          k = 0.0833 0.1443 0.0000 (  2687 PWs)   bands (ev):

   -33.7570 -28.3476 -27.3854 -20.8326 -13.8439 -11.9886 -10.0822  -6.8793
    -3.2717  -2.2555  -1.6848   2.7135   5.7864   6.4335   6.7953   7.9418

          k = 0.0833 0.2406 0.0000 (  2698 PWs)   bands (ev):

   -34.0713 -29.1136 -27.1087 -20.2405 -13.5886  -9.8996  -8.9044  -8.2666
    -4.5482  -2.2629  -1.4888   2.9115   6.1122   6.6835   7.2364   7.4146

          k = 0.0833 0.3368 0.0000 (  2705 PWs)   bands (ev):

   -34.3929 -29.8809 -26.8517 -19.3821 -12.8864 -10.0697  -7.6136  -7.2142
    -5.6051  -2.2891  -1.8481   3.3240   3.4076   7.7678   8.4431   8.4892

          k = 0.0833 0.4330 0.0000 (  2710 PWs)   bands (ev):

   -34.6434 -30.4710 -26.6759 -18.3368 -11.9230 -11.8212  -6.2988  -6.2816
    -4.5721  -2.7321  -2.3169   0.9461   3.9445   8.4978   9.9332  10.0494

          k = 0.0833 0.5292 0.0000 (  2713 PWs)   bands (ev):

   -34.7783 -30.7874 -26.5916 -17.3897 -13.3271 -10.8348  -6.6400  -5.5089
    -3.9872  -2.3358  -2.0614  -0.4205   4.2883   6.8650  11.2725  11.3823

          k = 0.1667 0.2887 0.0000 (  2703 PWs)   bands (ev):

   -34.3092 -30.0339 -26.5900 -19.5146 -13.2617  -9.5241  -7.8182  -7.4347
    -6.2524  -1.7949  -1.7064   3.6906   3.7024   7.4685   8.2145   8.2733

          k = 0.1667 0.3849 0.0000 (  2709 PWs)   bands (ev):

   -34.4834 -30.8915 -26.0996 -18.5641 -12.6013 -11.0437  -7.5327  -6.6223
    -4.8253  -2.2961  -1.4732   1.4245   4.6292   8.3046   9.5477   9.7034

          k = 0.1667 0.4811 0.0000 (  2736 PWs)   bands (ev):

   -34.5707 -31.4912 -25.7709 -17.5344 -12.5640 -11.7427  -8.2367  -5.5757
    -4.3958  -1.5874  -1.2922   0.3653   5.3130   7.6912  10.8569  11.0236

          k = 0.1667 0.5774 0.0000 (  2725 PWs)   bands (ev):

   -34.5924 -31.7079 -25.6573 -16.9704 -13.3309 -11.2729  -8.4569  -5.4764
    -4.3905  -1.8086  -1.2374   1.3357   5.5530   6.5417  11.2078  11.4896

          k = 0.2500 0.4330 0.0000 (  2739 PWs)   bands (ev):

   -34.4423 -31.8181 -25.3964 -17.5936 -12.1838 -12.0262  -9.0609  -5.5817
    -4.5516  -1.3888  -0.9351   0.6700   6.1248   8.2187  10.3292  10.8284

          k = 0.2500 0.5292 0.0000 (  2751 PWs)   bands (ev):

   -34.3279 -32.4105 -24.9830 -16.7934 -12.9029 -11.7702  -9.8390  -5.4454
    -4.6536  -1.9216  -0.6868   3.1018   7.1825   7.2257  10.4948  10.7599

          k = 0.3333 0.5774 0.0000 (  2763 PWs)   bands (ev):

   -34.1254 -32.8530 -24.6710 -16.4297 -12.9638 -11.7919 -10.5255  -5.7676
    -4.3328  -2.3219  -0.4851   5.7286   7.0022   8.5205   8.5741   9.9032

     the Fermi energy is     3.4244 ev

!    total energy              =     -48.04539905 Ry
     estimated scf accuracy    <          1.6E-09 Ry
     smearing contrib. (-TS)   =      -0.00004915 Ry
     internal energy E=F+TS    =     -48.04534989 Ry

     The total energy is F=E-TS. E is the sum of the following terms:
     one-electron contribution =   -1339.08815652 Ry
     hartree contribution      =     676.77283992 Ry
     xc contribution           =     -32.39493688 Ry
     ewald contribution        =     646.66490360 Ry

     convergence has been achieved in  17 iterations

     negative rho (up, down):  2.339E-03 0.000E+00

     Forces acting on atoms (cartesian axes, Ry/au):

     atom    1 type  1   force =     0.00000000    0.00000000  -22.57577498
     atom    2 type  1   force =     0.00000000    0.00000000   -2.74986938
     atom    3 type  1   force =     0.00000000   -0.00000000   -0.00034288
     atom    4 type  1   force =     0.00000000   -0.00000000    0.00113219
     atom    5 type  1   force =     0.00000000   -0.00000000   22.57566250
     atom    6 type  1   force =     0.00000000    0.00000000    2.74919255

     Total force =    32.162805     Total SCF correction =     0.000112


     Computing stress (Cartesian axis) and pressure


     negative rho (up, down):  2.339E-03 0.000E+00
          total   stress  (Ry/bohr**3)                   (kbar)     P=     5824.84
   0.01622975  -0.00000000   0.00000000         2387.48       -0.00        0.00
  -0.00000000   0.01622975   0.00000000           -0.00     2387.48        0.00
   0.00000000   0.00000000   0.08632983            0.00        0.00    12699.56


     Writing all to output data dir /run/media/rfa/SATA/Skripsi/DFT/Graphene-copy/tmp/gr-ab-3L.save/ :
     XML data file, charge density, pseudopotentials, collected wavefunctions

     init_run     :      0.37s CPU      0.40s WALL (       1 calls)
     electrons    :     16.60s CPU      8.84s WALL (       1 calls)
     forces       :      0.06s CPU      0.04s WALL (       1 calls)
     stress       :      0.19s CPU      0.12s WALL (       1 calls)

     Called by init_run:
     wfcinit      :      0.21s CPU      0.11s WALL (       1 calls)
     potinit      :      0.01s CPU      0.01s WALL (       1 calls)
     hinit0       :      0.14s CPU      0.26s WALL (       1 calls)

     Called by electrons:
     c_bands      :     15.11s CPU      8.01s WALL (      17 calls)
     sum_band     :      1.20s CPU      0.63s WALL (      17 calls)
     v_of_rho     :      0.14s CPU      0.08s WALL (      18 calls)
     newd         :      0.09s CPU      0.08s WALL (      18 calls)
     mix_rho      :      0.05s CPU      0.03s WALL (      17 calls)

     Called by c_bands:
     init_us_2    :      0.25s CPU      0.13s WALL (     703 calls)
     cegterg      :     14.60s CPU      7.71s WALL (     323 calls)

     Called by *egterg:
     cdiaghg      :      2.21s CPU      1.14s WALL (    2946 calls)
     h_psi        :      9.42s CPU      5.00s WALL (    2965 calls)
     s_psi        :      0.34s CPU      0.17s WALL (    2965 calls)
     g_psi        :      0.14s CPU      0.07s WALL (    2623 calls)

     Called by h_psi:
     h_psi:calbec :      1.58s CPU      0.80s WALL (    2965 calls)
     vloc_psi     :      7.10s CPU      3.79s WALL (    2965 calls)
     add_vuspsi   :      0.58s CPU      0.30s WALL (    2965 calls)

     General routines
     calbec       :      1.75s CPU      0.89s WALL (    3611 calls)
     fft          :      0.17s CPU      0.28s WALL (     223 calls)
     ffts         :      0.00s CPU      0.00s WALL (      17 calls)
     fftw         :      6.24s CPU      3.33s WALL (   53344 calls)

     Parallel routines

     PWSCF        :     17.31s CPU      9.69s WALL


   This run was terminated on:  15: 9:35  16Apr2025            

=------------------------------------------------------------------------------=
   JOB DONE.
=------------------------------------------------------------------------------=
