
     Program PWSCF v.7.4.1 starts on 16Apr2025 at 15:11:36 

     This program is part of the open-source Quantum ESPRESSO suite
     for quantum simulation of materials; please cite
         "P. Giannozzi et al., J. Phys.:Condens. Matter 21 395502 (2009);
         "P. Giannozzi et al., J. Phys.:Condens. Matter 29 465901 (2017);
         "P. Giannozzi et al., J. Chem. Phys. 152 154105 (2020);
          URL http://www.quantum-espresso.org", 
     in publications or presentations arising from this work. More details at
     http://www.quantum-espresso.org/quote

     Parallel version (MPI), running on     7 processors

     MPI processes distributed on     1 nodes
     14813 MiB available memory on the printing compute node when the environment starts

     Waiting for input...
     Reading input from standard input

     Current dimensions of program PWSCF are:
     Max number of different atomic species (ntypx) = 10
     Max number of k-points (npk) =  40000
     Max angular momentum in pseudopotentials (lmaxx) =  4

     R & G space division:  proc/nbgrp/npool/nimage =       7
     Subspace diagonalization in iterative solution of the eigenvalue problem:
     a serial algorithm will be used


     Parallelization info
     --------------------
     sticks:   dense  smooth     PW     G-vecs:    dense   smooth      PW
     Min          62      62     19                 6632     6632    1108
     Max          63      63     21                 6655     6655    1119
     Sum         439     439    139                46531    46531    7785

     Using Slab Decomposition



     bravais-lattice index     =            4
     lattice parameter (alat)  =       4.6561  a.u.
     unit-cell volume          =     532.1899 (a.u.)^3
     number of atoms/cell      =            6
     number of atomic types    =            1
     number of electrons       =        24.00
     number of Kohn-Sham states=           16
     kinetic-energy cutoff     =      75.0000  Ry
     charge density cutoff     =     300.0000  Ry
     scf convergence threshold =      1.0E-08
     mixing beta               =       0.7000
     number of iterations used =            8  plain     mixing
     Exchange-correlation= PBE
                           (   1   4   3   4   0   0   0)

     celldm(1)=   4.656107  celldm(2)=   0.000000  celldm(3)=   6.087896
     celldm(4)=   0.000000  celldm(5)=   0.000000  celldm(6)=   0.000000

     crystal axes: (cart. coord. in units of alat)
               a(1) = (   1.000000   0.000000   0.000000 )  
               a(2) = (  -0.500000   0.866025   0.000000 )  
               a(3) = (   0.000000   0.000000   6.087896 )  

     reciprocal axes: (cart. coord. in units 2 pi/alat)
               b(1) = (  1.000000  0.577350 -0.000000 )  
               b(2) = (  0.000000  1.154701  0.000000 )  
               b(3) = (  0.000000 -0.000000  0.164260 )  


     PseudoPot. # 1 for C  read from file:
     /run/media/rfa/SATA/Skripsi/DFT/Graphene-copy/pseudo/C.pbe-n-rrkjus_psl.0.1.UPF
     MD5 check sum: 96a6a315177d77e6c95bf6fd3870f9e3
     Pseudo is Ultrasoft + core correction, Zval =  4.0
     Generated using &quot;atomic&quot; code by A. Dal Corso  v.6.3MaX
     Using radial grid of 1073 points,  4 beta functions with: 
                l(1) =   0
                l(2) =   0
                l(3) =   1
                l(4) =   1
     Q(r) pseudized with 0 coefficients 


     atomic species   valence    mass     pseudopotential
     C                 4.00    12.01070     C ( 1.00)

      6 Sym. Ops. (no inversion) found



   Cartesian axes

     site n.     atom                  positions (alat units)
         1        C      tau(   1) = (   0.0000000   0.5773503   3.0439478  )
         2        C      tau(   2) = (   0.5000000   0.2886751   3.0439478  )
         3        C      tau(   3) = (   0.0000000   0.0000000   3.2468777  )
         4        C      tau(   4) = (   0.0000000   0.5773503   3.2468777  )
         5        C      tau(   5) = (   0.0000000   0.5773503   3.4498075  )
         6        C      tau(   6) = (   0.5000000   0.2886751   3.4498075  )

     number of k points=    19  Marzari-Vanderbilt smearing, width (Ry)=  0.0200
                       cart. coord. in units 2pi/alat
        k(    1) = (   0.0000000   0.0000000   0.0000000), wk =   0.0138889
        k(    2) = (   0.0000000   0.0962250   0.0000000), wk =   0.0833333
        k(    3) = (   0.0000000   0.1924501   0.0000000), wk =   0.0833333
        k(    4) = (   0.0000000   0.2886751   0.0000000), wk =   0.0833333
        k(    5) = (   0.0000000   0.3849002   0.0000000), wk =   0.0833333
        k(    6) = (   0.0000000   0.4811252   0.0000000), wk =   0.0833333
        k(    7) = (   0.0000000  -0.5773503   0.0000000), wk =   0.0416667
        k(    8) = (   0.0833333   0.1443376   0.0000000), wk =   0.0833333
        k(    9) = (   0.0833333   0.2405626   0.0000000), wk =   0.1666667
        k(   10) = (   0.0833333   0.3367877   0.0000000), wk =   0.1666667
        k(   11) = (   0.0833333   0.4330127   0.0000000), wk =   0.1666667
        k(   12) = (   0.0833333   0.5292377   0.0000000), wk =   0.1666667
        k(   13) = (   0.1666667   0.2886751   0.0000000), wk =   0.0833333
        k(   14) = (   0.1666667   0.3849002   0.0000000), wk =   0.1666667
        k(   15) = (   0.1666667   0.4811252   0.0000000), wk =   0.1666667
        k(   16) = (   0.1666667   0.5773503   0.0000000), wk =   0.0833333
        k(   17) = (   0.2500000   0.4330127   0.0000000), wk =   0.0833333
        k(   18) = (   0.2500000   0.5292377   0.0000000), wk =   0.1666667
        k(   19) = (   0.3333333   0.5773503   0.0000000), wk =   0.0277778

     Dense  grid:    46531 G-vectors     FFT dimensions: (  25,  25, 160)

     Estimated max dynamical RAM per process >      14.88 MB

     Estimated total dynamical RAM >     104.13 MB

     Check: negative core charge=   -0.000003

     Initial potential from superposition of free atoms

     starting charge      23.9998, renormalised to      24.0000

     negative rho (up, down):  7.768E-05 0.000E+00
     Starting wfcs are   24 randomized atomic wfcs

     total cpu time spent up to now is        0.8 secs

     per-process dynamical memory:    15.3 Mb

     Self-consistent Calculation

     iteration #  1     ecut=    75.00 Ry     beta= 0.70
     Davidson diagonalization with overlap
     ethr =  1.00E-02,  avg # of iterations =  9.9

     negative rho (up, down):  1.553E-04 0.000E+00

     total cpu time spent up to now is        2.5 secs

     total energy              =     -40.32792115 Ry
     estimated scf accuracy    <      19.17111352 Ry

     iteration #  2     ecut=    75.00 Ry     beta= 0.70
     Davidson diagonalization with overlap
     ethr =  1.00E-02,  avg # of iterations = 12.0

     total cpu time spent up to now is        4.1 secs

     total energy              =     -40.21960038 Ry
     estimated scf accuracy    <      25.77483190 Ry

     iteration #  3     ecut=    75.00 Ry     beta= 0.70
     Davidson diagonalization with overlap
     ethr =  1.00E-02,  avg # of iterations =  9.6

     total cpu time spent up to now is        5.6 secs

     total energy              =     -48.12984369 Ry
     estimated scf accuracy    <       1.31947731 Ry

     iteration #  4     ecut=    75.00 Ry     beta= 0.70
     Davidson diagonalization with overlap
     ethr =  5.50E-03,  avg # of iterations =  4.0

     total cpu time spent up to now is        6.3 secs

     total energy              =     -48.11650207 Ry
     estimated scf accuracy    <       0.59432234 Ry

     iteration #  5     ecut=    75.00 Ry     beta= 0.70
     Davidson diagonalization with overlap
     ethr =  2.48E-03,  avg # of iterations =  3.6

     total cpu time spent up to now is        7.0 secs

     total energy              =     -48.17411775 Ry
     estimated scf accuracy    <       0.20579040 Ry

     iteration #  6     ecut=    75.00 Ry     beta= 0.70
     Davidson diagonalization with overlap
     ethr =  8.57E-04,  avg # of iterations =  5.5

     total cpu time spent up to now is        7.9 secs

     total energy              =     -48.23081935 Ry
     estimated scf accuracy    <       0.14007415 Ry

     iteration #  7     ecut=    75.00 Ry     beta= 0.70
     Davidson diagonalization with overlap
     ethr =  5.84E-04,  avg # of iterations =  2.6

     negative rho (up, down):  8.612E-06 0.000E+00

     total cpu time spent up to now is        8.5 secs

     total energy              =     -48.20550748 Ry
     estimated scf accuracy    <       0.06180990 Ry

     iteration #  8     ecut=    75.00 Ry     beta= 0.70
     Davidson diagonalization with overlap
     c_bands:  2 eigenvalues not converged
     c_bands:  1 eigenvalues not converged
     ethr =  2.58E-04,  avg # of iterations = 13.7

     negative rho (up, down):  1.053E-03 0.000E+00

     total cpu time spent up to now is       10.0 secs

     total energy              =     -48.23854207 Ry
     estimated scf accuracy    <       0.00967729 Ry

     iteration #  9     ecut=    75.00 Ry     beta= 0.70
     Davidson diagonalization with overlap
     c_bands:  2 eigenvalues not converged
     c_bands:  1 eigenvalues not converged
     c_bands:  1 eigenvalues not converged
     c_bands:  1 eigenvalues not converged
     c_bands:  1 eigenvalues not converged
     ethr =  4.03E-05,  avg # of iterations = 13.6

     negative rho (up, down):  1.435E-02 0.000E+00

     total cpu time spent up to now is       11.6 secs

     total energy              =     -48.24903894 Ry
     estimated scf accuracy    <       0.00543631 Ry

     iteration # 10     ecut=    75.00 Ry     beta= 0.70
     Davidson diagonalization with overlap
     c_bands:  1 eigenvalues not converged
     c_bands:  1 eigenvalues not converged
     ethr =  2.27E-05,  avg # of iterations = 12.8

     negative rho (up, down):  1.967E-04 0.000E+00

     total cpu time spent up to now is       12.9 secs

     total energy              =     -48.24577881 Ry
     estimated scf accuracy    <       0.00692932 Ry

     iteration # 11     ecut=    75.00 Ry     beta= 0.70
     Davidson diagonalization with overlap
     c_bands:  1 eigenvalues not converged
     ethr =  2.27E-05,  avg # of iterations = 12.4

     negative rho (up, down):  3.729E-04 0.000E+00

     total cpu time spent up to now is       14.2 secs

     total energy              =     -48.24751969 Ry
     estimated scf accuracy    <       0.00002013 Ry

     iteration # 12     ecut=    75.00 Ry     beta= 0.70
     Davidson diagonalization with overlap
     c_bands:  1 eigenvalues not converged
     c_bands:  1 eigenvalues not converged
     c_bands:  1 eigenvalues not converged
     c_bands:  1 eigenvalues not converged
     c_bands:  1 eigenvalues not converged
     c_bands:  1 eigenvalues not converged
     ethr =  8.39E-08,  avg # of iterations = 33.8

     negative rho (up, down):  3.308E-04 0.000E+00

     total cpu time spent up to now is       19.7 secs

     total energy              =     -48.24851234 Ry
     estimated scf accuracy    <       0.00090778 Ry

     iteration # 13     ecut=    75.00 Ry     beta= 0.70
     Davidson diagonalization with overlap
     ethr =  8.39E-08,  avg # of iterations =  5.7

     negative rho (up, down):  3.248E-04 0.000E+00

     total cpu time spent up to now is       20.7 secs

     total energy              =     -48.24825778 Ry
     estimated scf accuracy    <       0.00042876 Ry

     iteration # 14     ecut=    75.00 Ry     beta= 0.70
     Davidson diagonalization with overlap
     ethr =  8.39E-08,  avg # of iterations = 15.9

     negative rho (up, down):  3.426E-04 0.000E+00

     total cpu time spent up to now is       23.3 secs

     total energy              =     -48.24839275 Ry
     estimated scf accuracy    <       0.00008113 Ry

     iteration # 15     ecut=    75.00 Ry     beta= 0.70
     Davidson diagonalization with overlap
     ethr =  8.39E-08,  avg # of iterations =  6.8

     negative rho (up, down):  3.365E-04 0.000E+00

     total cpu time spent up to now is       24.5 secs

     total energy              =     -48.24843243 Ry
     estimated scf accuracy    <       0.00002085 Ry

     iteration # 16     ecut=    75.00 Ry     beta= 0.70
     Davidson diagonalization with overlap
     ethr =  8.39E-08,  avg # of iterations =  2.0

     negative rho (up, down):  3.333E-04 0.000E+00

     total cpu time spent up to now is       25.0 secs

     total energy              =     -48.24842434 Ry
     estimated scf accuracy    <       0.00002542 Ry

     iteration # 17     ecut=    75.00 Ry     beta= 0.70
     Davidson diagonalization with overlap
     ethr =  8.39E-08,  avg # of iterations =  1.0

     negative rho (up, down):  3.308E-04 0.000E+00

     total cpu time spent up to now is       25.6 secs

     total energy              =     -48.24842237 Ry
     estimated scf accuracy    <       0.00000862 Ry

     iteration # 18     ecut=    75.00 Ry     beta= 0.70
     Davidson diagonalization with overlap
     ethr =  3.59E-08,  avg # of iterations =  1.6

     negative rho (up, down):  3.301E-04 0.000E+00

     total cpu time spent up to now is       26.1 secs

     total energy              =     -48.24842176 Ry
     estimated scf accuracy    <       0.00000247 Ry

     iteration # 19     ecut=    75.00 Ry     beta= 0.70
     Davidson diagonalization with overlap
     ethr =  1.03E-08,  avg # of iterations =  5.9

     negative rho (up, down):  3.304E-04 0.000E+00

     total cpu time spent up to now is       27.1 secs

     total energy              =     -48.24842365 Ry
     estimated scf accuracy    <       0.00000009 Ry

     iteration # 20     ecut=    75.00 Ry     beta= 0.70
     Davidson diagonalization with overlap
     ethr =  3.72E-10,  avg # of iterations = 14.7

     negative rho (up, down):  3.305E-04 0.000E+00

     total cpu time spent up to now is       29.6 secs

     total energy              =     -48.24842406 Ry
     estimated scf accuracy    <       0.00000089 Ry

     iteration # 21     ecut=    75.00 Ry     beta= 0.70
     Davidson diagonalization with overlap
     ethr =  3.72E-10,  avg # of iterations =  1.4

     negative rho (up, down):  3.310E-04 0.000E+00

     total cpu time spent up to now is       30.1 secs

     total energy              =     -48.24842380 Ry
     estimated scf accuracy    <       0.00000061 Ry

     iteration # 22     ecut=    75.00 Ry     beta= 0.70
     Davidson diagonalization with overlap
     ethr =  3.72E-10,  avg # of iterations =  6.1

     negative rho (up, down):  3.310E-04 0.000E+00

     total cpu time spent up to now is       31.2 secs

     total energy              =     -48.24842390 Ry
     estimated scf accuracy    <       0.00000005 Ry

     iteration # 23     ecut=    75.00 Ry     beta= 0.70
     Davidson diagonalization with overlap
     ethr =  1.88E-10,  avg # of iterations =  2.9

     negative rho (up, down):  3.311E-04 0.000E+00

     total cpu time spent up to now is       31.8 secs

     total energy              =     -48.24842389 Ry
     estimated scf accuracy    <       0.00000006 Ry

     iteration # 24     ecut=    75.00 Ry     beta= 0.70
     Davidson diagonalization with overlap
     ethr =  1.88E-10,  avg # of iterations =  3.8

     negative rho (up, down):  3.311E-04 0.000E+00

     total cpu time spent up to now is       32.6 secs

     End of self-consistent calculation

          k = 0.0000 0.0000 0.0000 (  5827 PWs)   bands (ev):

   -33.3627 -27.4725 -27.4725 -21.5411 -13.6836 -13.6836 -11.2873  -6.1824
    -2.0181  -1.9817  -1.9817   3.1692   5.5136   6.4441   6.7485   8.1593

          k = 0.0000 0.0962 0.0000 (  5879 PWs)   bands (ev):

   -33.4741 -27.7236 -27.4137 -21.3946 -13.7564 -13.0826 -10.8022  -6.5410
    -2.3351  -2.1739  -1.8568   2.8675   5.7069   6.4512   6.9181   8.1475

          k = 0.0000 0.1925 0.0000 (  5881 PWs)   bands (ev):

   -33.7615 -28.3397 -27.2788 -20.9603 -13.6645 -11.4332  -9.6880  -7.6385
    -3.1536  -2.6267  -1.5211   2.6244   6.2487   6.9476   7.3529   8.1407

          k = 0.0000 0.2887 0.0000 (  5891 PWs)   bands (ev):

   -34.1212 -29.0600 -27.1445 -20.2563 -13.1194  -9.3241  -9.0538  -8.3263
    -4.0526  -3.0428  -1.4746   2.8610   5.1728   7.2565   7.9691   8.1339

          k = 0.0000 0.3849 0.0000 (  5869 PWs)   bands (ev):

   -34.4516 -29.6829 -27.0554 -19.3321 -12.1185 -11.2052  -6.9087  -6.2887
    -4.7970  -3.3019  -2.1679   2.3710   3.3550   8.7171   9.3778   9.4288

          k = 0.0000 0.4811 0.0000 (  5815 PWs)   bands (ev):

   -34.6785 -30.0930 -27.0127 -18.3430 -12.8542 -10.9222  -5.7029  -5.2751
    -3.6429  -3.4338  -3.2417   0.1658   3.8125   7.8395  10.6272  10.8767

          k = 0.0000-0.5774 0.0000 (  5814 PWs)   bands (ev):

   -34.7588 -30.2352 -27.0011 -17.8136 -13.6157 -10.2776  -5.4391  -5.3738
    -3.5197  -3.4737  -2.3379  -0.8665   3.9974   6.6075  11.5350  11.6161

          k = 0.0833 0.1443 0.0000 (  5871 PWs)   bands (ev):

   -33.6705 -28.2107 -27.2574 -21.1042 -13.7722 -11.9145 -10.0285  -7.2477
    -3.2066  -2.2386  -1.6060   2.6988   6.0773   6.7542   7.2224   8.1904

          k = 0.0833 0.2406 0.0000 (  5868 PWs)   bands (ev):

   -33.9779 -28.9821 -26.9951 -20.5340 -13.5113  -9.8196  -8.8489  -8.5666
    -4.4917  -2.2909  -1.4090   2.9186   6.2043   6.8897   7.5444   7.7877

          k = 0.0833 0.3368 0.0000 (  5851 PWs)   bands (ev):

   -34.2928 -29.7535 -26.7521 -19.7146 -12.8031 -10.2865  -7.5531  -7.1295
    -5.5690  -2.3582  -1.7622   3.3989   3.4368   7.8970   8.7809   8.7993

          k = 0.0833 0.4330 0.0000 (  5827 PWs)   bands (ev):

   -34.5386 -30.3469 -26.5870 -18.7323 -12.0415 -11.7338  -6.2772  -6.2225
    -4.4727  -2.6424  -2.4134   1.0113   3.9921   8.5760  10.2218  10.2869

          k = 0.0833 0.5292 0.0000 (  5816 PWs)   bands (ev):

   -34.6710 -30.6649 -26.5083 -17.8796 -13.3265 -10.7464  -6.6250  -5.4452
    -3.8756  -2.4427  -1.9711  -0.3620   4.3468   6.9340  11.3679  11.4710

          k = 0.1667 0.2887 0.0000 (  5853 PWs)   bands (ev):

   -34.2105 -29.9073 -26.4865 -19.8453 -13.1785  -9.7882  -7.7609  -7.3483
    -6.1882  -1.8433  -1.6230   3.7186   3.7663   7.5916   8.5618   8.5843

          k = 0.1667 0.3849 0.0000 (  5823 PWs)   bands (ev):

   -34.3800 -30.7693 -26.0062 -18.9473 -12.5117 -11.2303  -7.4837  -6.5647
    -4.7233  -2.2147  -1.5336   1.4904   4.6585   8.3869   9.8804   9.9607

          k = 0.1667 0.4811 0.0000 (  5806 PWs)   bands (ev):

   -34.4635 -31.3719 -25.6846 -17.9996 -12.6263 -11.6480  -8.2107  -5.5144
    -4.2820  -1.5076  -1.3565   0.4259   5.3538   7.7695  10.9207  11.1471

          k = 0.1667 0.5774 0.0000 (  5806 PWs)   bands (ev):

   -34.4844 -31.5898 -25.5736 -17.5036 -13.2957 -11.1766  -8.4391  -5.3939
    -4.2975  -1.7413  -1.2988   1.4116   5.5974   6.6132  11.2716  11.5560

          k = 0.2500 0.4330 0.0000 (  5808 PWs)   bands (ev):

   -34.3357 -31.6996 -25.3096 -18.0545 -12.1414 -12.0868  -9.0011  -5.5245
    -4.4358  -1.3121  -0.9853   0.7293   6.1632   8.3014  10.3034  10.9648

          k = 0.2500 0.5292 0.0000 (  5811 PWs)   bands (ev):

   -34.2196 -32.2942 -24.9001 -17.3247 -12.8829 -11.6674  -9.7888  -5.3377
    -4.5921  -1.8541  -0.7181   3.1750   7.2280   7.3035  10.5335  10.8271

          k = 0.3333 0.5774 0.0000 (  5808 PWs)   bands (ev):

   -34.0162 -32.7373 -24.5900 -17.0320 -12.8968 -11.6846 -10.4648  -5.6526
    -4.2796  -2.2544  -0.5126   5.8049   7.0691   8.6067   8.6425   9.9637

     the Fermi energy is     3.4802 ev

!    total energy              =     -48.24842389 Ry
     estimated scf accuracy    <          8.9E-09 Ry
     smearing contrib. (-TS)   =      -0.00033745 Ry
     internal energy E=F+TS    =     -48.24808644 Ry

     The total energy is F=E-TS. E is the sum of the following terms:
     one-electron contribution =   -1339.49516345 Ry
     hartree contribution      =     676.99980498 Ry
     xc contribution           =     -32.41763260 Ry
     ewald contribution        =     646.66490464 Ry

     convergence has been achieved in  24 iterations

     negative rho (up, down):  3.311E-04 0.000E+00

     Forces acting on atoms (cartesian axes, Ry/au):

     atom    1 type  1   force =     0.00000000    0.00000000  -21.38262059
     atom    2 type  1   force =     0.00000000    0.00000000   -2.74788044
     atom    3 type  1   force =     0.00000000    0.00000000    0.00081361
     atom    4 type  1   force =     0.00000000   -0.00000000   -0.00318767
     atom    5 type  1   force =     0.00000000    0.00000000   21.38338294
     atom    6 type  1   force =     0.00000000   -0.00000000    2.74949214

     Total force =    30.488950     Total SCF correction =     0.000170


     Computing stress (Cartesian axis) and pressure


     negative rho (up, down):  3.311E-04 0.000E+00
          total   stress  (Ry/bohr**3)                   (kbar)     P=     5844.39
   0.01676068   0.00000000   0.00000000         2465.58        0.00        0.00
   0.00000000   0.01676068   0.00000000            0.00     2465.58        0.00
   0.00000000   0.00000000   0.08566661            0.00        0.00    12601.99


     Writing all to output data dir /run/media/rfa/SATA/Skripsi/DFT/Graphene-copy/tmp/gr-ab-3L.save/ :
     XML data file, charge density, pseudopotentials, collected wavefunctions

     init_run     :      0.67s CPU      0.70s WALL (       1 calls)
     electrons    :     59.17s CPU     31.81s WALL (       1 calls)
     forces       :      0.22s CPU      0.12s WALL (       1 calls)
     stress       :      0.75s CPU      0.42s WALL (       1 calls)

     Called by init_run:
     wfcinit      :      0.41s CPU      0.25s WALL (       1 calls)
     potinit      :      0.01s CPU      0.01s WALL (       1 calls)
     hinit0       :      0.21s CPU      0.38s WALL (       1 calls)

     Called by electrons:
     c_bands      :     53.96s CPU     28.78s WALL (      24 calls)
     sum_band     :      4.50s CPU      2.42s WALL (      24 calls)
     v_of_rho     :      0.21s CPU      0.23s WALL (      25 calls)
     newd         :      0.26s CPU      0.23s WALL (      25 calls)
     mix_rho      :      0.21s CPU      0.14s WALL (      24 calls)

     Called by c_bands:
     init_us_2    :      1.17s CPU      0.60s WALL (     969 calls)
     cegterg      :     52.33s CPU     27.89s WALL (     474 calls)

     Called by *egterg:
     cdiaghg      :      3.37s CPU      1.75s WALL (    4305 calls)
     h_psi        :     35.43s CPU     19.30s WALL (    4324 calls)
     s_psi        :      2.38s CPU      1.23s WALL (    4324 calls)
     g_psi        :      0.44s CPU      0.23s WALL (    3831 calls)

     Called by h_psi:
     h_psi:calbec :      5.36s CPU      2.89s WALL (    4324 calls)
     vloc_psi     :     26.32s CPU     14.46s WALL (    4324 calls)
     add_vuspsi   :      3.23s CPU      1.66s WALL (    4324 calls)

     General routines
     calbec       :      6.24s CPU      3.34s WALL (    5103 calls)
     fft          :      0.29s CPU      0.46s WALL (     300 calls)
     ffts         :      0.01s CPU      0.01s WALL (      24 calls)
     fftw         :     23.68s CPU     13.13s WALL (   82380 calls)

     Parallel routines

     PWSCF        :   1m 0.93s CPU     33.56s WALL


   This run was terminated on:  15:12: 9  16Apr2025            

=------------------------------------------------------------------------------=
   JOB DONE.
=------------------------------------------------------------------------------=
