
     Program PWSCF v.7.4.1 starts on 16Apr2025 at 15: 8:50 

     This program is part of the open-source Quantum ESPRESSO suite
     for quantum simulation of materials; please cite
         "P. Giannozzi et al., J. Phys.:Condens. Matter 21 395502 (2009);
         "P. Giannozzi et al., J. Phys.:Condens. Matter 29 465901 (2017);
         "P. Giannozzi et al., J. Chem. Phys. 152 154105 (2020);
          URL http://www.quantum-espresso.org", 
     in publications or presentations arising from this work. More details at
     http://www.quantum-espresso.org/quote

     Parallel version (MPI), running on     7 processors

     MPI processes distributed on     1 nodes
     14930 MiB available memory on the printing compute node when the environment starts

     Waiting for input...
     Reading input from standard input

     Current dimensions of program PWSCF are:
     Max number of different atomic species (ntypx) = 10
     Max number of k-points (npk) =  40000
     Max angular momentum in pseudopotentials (lmaxx) =  4

     R & G space division:  proc/nbgrp/npool/nimage =       7
     Subspace diagonalization in iterative solution of the eigenvalue problem:
     a serial algorithm will be used


     Parallelization info
     --------------------
     sticks:   dense  smooth     PW     G-vecs:    dense   smooth      PW
     Min          21      21      7                 1345     1345     271
     Max          22      22      8                 1372     1372     290
     Sum         151     151     55                 9519     9519    1981

     Using Slab Decomposition



     bravais-lattice index     =            4
     lattice parameter (alat)  =       4.6561  a.u.
     unit-cell volume          =     532.1899 (a.u.)^3
     number of atoms/cell      =            6
     number of atomic types    =            1
     number of electrons       =        24.00
     number of Kohn-Sham states=           16
     kinetic-energy cutoff     =      26.0000  Ry
     charge density cutoff     =     104.0000  Ry
     scf convergence threshold =      1.0E-08
     mixing beta               =       0.7000
     number of iterations used =            8  plain     mixing
     Exchange-correlation= PBE
                           (   1   4   3   4   0   0   0)

     celldm(1)=   4.656107  celldm(2)=   0.000000  celldm(3)=   6.087896
     celldm(4)=   0.000000  celldm(5)=   0.000000  celldm(6)=   0.000000

     crystal axes: (cart. coord. in units of alat)
               a(1) = (   1.000000   0.000000   0.000000 )  
               a(2) = (  -0.500000   0.866025   0.000000 )  
               a(3) = (   0.000000   0.000000   6.087896 )  

     reciprocal axes: (cart. coord. in units 2 pi/alat)
               b(1) = (  1.000000  0.577350 -0.000000 )  
               b(2) = (  0.000000  1.154701  0.000000 )  
               b(3) = (  0.000000 -0.000000  0.164260 )  


     PseudoPot. # 1 for C  read from file:
     /run/media/rfa/SATA/Skripsi/DFT/Graphene-copy/pseudo/C.pbe-n-rrkjus_psl.0.1.UPF
     MD5 check sum: 96a6a315177d77e6c95bf6fd3870f9e3
     Pseudo is Ultrasoft + core correction, Zval =  4.0
     Generated using &quot;atomic&quot; code by A. Dal Corso  v.6.3MaX
     Using radial grid of 1073 points,  4 beta functions with: 
                l(1) =   0
                l(2) =   0
                l(3) =   1
                l(4) =   1
     Q(r) pseudized with 0 coefficients 


     atomic species   valence    mass     pseudopotential
     C                 4.00    12.01070     C ( 1.00)

      6 Sym. Ops. (no inversion) found



   Cartesian axes

     site n.     atom                  positions (alat units)
         1        C      tau(   1) = (   0.0000000   0.5773503   3.0439478  )
         2        C      tau(   2) = (   0.5000000   0.2886751   3.0439478  )
         3        C      tau(   3) = (   0.0000000   0.0000000   3.2468777  )
         4        C      tau(   4) = (   0.0000000   0.5773503   3.2468777  )
         5        C      tau(   5) = (   0.0000000   0.5773503   3.4498075  )
         6        C      tau(   6) = (   0.5000000   0.2886751   3.4498075  )

     number of k points=    19  Marzari-Vanderbilt smearing, width (Ry)=  0.0200
                       cart. coord. in units 2pi/alat
        k(    1) = (   0.0000000   0.0000000   0.0000000), wk =   0.0138889
        k(    2) = (   0.0000000   0.0962250   0.0000000), wk =   0.0833333
        k(    3) = (   0.0000000   0.1924501   0.0000000), wk =   0.0833333
        k(    4) = (   0.0000000   0.2886751   0.0000000), wk =   0.0833333
        k(    5) = (   0.0000000   0.3849002   0.0000000), wk =   0.0833333
        k(    6) = (   0.0000000   0.4811252   0.0000000), wk =   0.0833333
        k(    7) = (   0.0000000  -0.5773503   0.0000000), wk =   0.0416667
        k(    8) = (   0.0833333   0.1443376   0.0000000), wk =   0.0833333
        k(    9) = (   0.0833333   0.2405626   0.0000000), wk =   0.1666667
        k(   10) = (   0.0833333   0.3367877   0.0000000), wk =   0.1666667
        k(   11) = (   0.0833333   0.4330127   0.0000000), wk =   0.1666667
        k(   12) = (   0.0833333   0.5292377   0.0000000), wk =   0.1666667
        k(   13) = (   0.1666667   0.2886751   0.0000000), wk =   0.0833333
        k(   14) = (   0.1666667   0.3849002   0.0000000), wk =   0.1666667
        k(   15) = (   0.1666667   0.4811252   0.0000000), wk =   0.1666667
        k(   16) = (   0.1666667   0.5773503   0.0000000), wk =   0.0833333
        k(   17) = (   0.2500000   0.4330127   0.0000000), wk =   0.0833333
        k(   18) = (   0.2500000   0.5292377   0.0000000), wk =   0.1666667
        k(   19) = (   0.3333333   0.5773503   0.0000000), wk =   0.0277778

     Dense  grid:     9519 G-vectors     FFT dimensions: (  15,  15,  96)

     Estimated max dynamical RAM per process >       3.23 MB

     Estimated total dynamical RAM >      22.58 MB

     Check: negative core charge=   -0.000092

     Initial potential from superposition of free atoms

     starting charge      23.9998, renormalised to      24.0000

     negative rho (up, down):  8.528E-03 0.000E+00
     Starting wfcs are   24 randomized atomic wfcs

     total cpu time spent up to now is        0.4 secs

     per-process dynamical memory:     8.9 Mb

     Self-consistent Calculation

     iteration #  1     ecut=    26.00 Ry     beta= 0.70
     Davidson diagonalization with overlap
     ethr =  1.00E-02,  avg # of iterations =  5.5

     negative rho (up, down):  7.795E-02 0.000E+00

     total cpu time spent up to now is        0.6 secs

     total energy              =     -40.11347464 Ry
     estimated scf accuracy    <      14.97848556 Ry

     iteration #  2     ecut=    26.00 Ry     beta= 0.70
     Davidson diagonalization with overlap
     ethr =  1.00E-02,  avg # of iterations = 11.5

     negative rho (up, down):  3.031E-05 0.000E+00

     total cpu time spent up to now is        1.0 secs

     total energy              =     -33.21249201 Ry
     estimated scf accuracy    <      41.70514925 Ry

     iteration #  3     ecut=    26.00 Ry     beta= 0.70
     Davidson diagonalization with overlap
     ethr =  1.00E-02,  avg # of iterations =  9.8

     negative rho (up, down):  5.954E-04 0.000E+00

     total cpu time spent up to now is        1.2 secs

     total energy              =     -46.45578159 Ry
     estimated scf accuracy    <       2.18101304 Ry

     iteration #  4     ecut=    26.00 Ry     beta= 0.70
     Davidson diagonalization with overlap
     ethr =  9.09E-03,  avg # of iterations =  2.1

     negative rho (up, down):  3.155E-03 0.000E+00

     total cpu time spent up to now is        1.4 secs

     total energy              =     -46.30941561 Ry
     estimated scf accuracy    <       0.98187275 Ry

     iteration #  5     ecut=    26.00 Ry     beta= 0.70
     Davidson diagonalization with overlap
     ethr =  4.09E-03,  avg # of iterations =  1.5

     negative rho (up, down):  5.391E-03 0.000E+00

     total cpu time spent up to now is        1.5 secs

     total energy              =     -46.23410991 Ry
     estimated scf accuracy    <       0.60086251 Ry

     iteration #  6     ecut=    26.00 Ry     beta= 0.70
     Davidson diagonalization with overlap
     ethr =  2.50E-03,  avg # of iterations =  2.5

     negative rho (up, down):  1.544E-02 0.000E+00

     total cpu time spent up to now is        1.6 secs

     total energy              =     -46.08595272 Ry
     estimated scf accuracy    <       0.43208842 Ry

     iteration #  7     ecut=    26.00 Ry     beta= 0.70
     Davidson diagonalization with overlap
     ethr =  1.80E-03,  avg # of iterations =  2.8

     negative rho (up, down):  2.372E-02 0.000E+00

     total cpu time spent up to now is        1.7 secs

     total energy              =     -46.05919046 Ry
     estimated scf accuracy    <       0.16963056 Ry

     iteration #  8     ecut=    26.00 Ry     beta= 0.70
     Davidson diagonalization with overlap
     ethr =  7.07E-04,  avg # of iterations =  3.7

     negative rho (up, down):  5.340E-02 0.000E+00

     total cpu time spent up to now is        1.9 secs

     total energy              =     -46.00759265 Ry
     estimated scf accuracy    <       0.09740316 Ry

     iteration #  9     ecut=    26.00 Ry     beta= 0.70
     Davidson diagonalization with overlap
     ethr =  4.06E-04,  avg # of iterations =  7.0

     negative rho (up, down):  7.813E-02 0.000E+00

     total cpu time spent up to now is        2.1 secs

     total energy              =     -46.00264851 Ry
     estimated scf accuracy    <       0.01697058 Ry

     iteration # 10     ecut=    26.00 Ry     beta= 0.70
     Davidson diagonalization with overlap
     ethr =  7.07E-05,  avg # of iterations = 11.9

     negative rho (up, down):  7.613E-02 0.000E+00

     total cpu time spent up to now is        2.3 secs

     total energy              =     -46.00654139 Ry
     estimated scf accuracy    <       0.00028135 Ry

     iteration # 11     ecut=    26.00 Ry     beta= 0.70
     Davidson diagonalization with overlap
     c_bands:  1 eigenvalues not converged
     ethr =  1.17E-06,  avg # of iterations = 10.1

     negative rho (up, down):  8.427E-02 0.000E+00

     total cpu time spent up to now is        2.6 secs

     total energy              =     -46.00624013 Ry
     estimated scf accuracy    <       0.00080807 Ry

     iteration # 12     ecut=    26.00 Ry     beta= 0.70
     Davidson diagonalization with overlap
     c_bands:  1 eigenvalues not converged
     c_bands:  1 eigenvalues not converged
     ethr =  1.17E-06,  avg # of iterations = 13.8

     negative rho (up, down):  8.111E-02 0.000E+00

     total cpu time spent up to now is        2.9 secs

     total energy              =     -46.00640941 Ry
     estimated scf accuracy    <       0.00033391 Ry

     iteration # 13     ecut=    26.00 Ry     beta= 0.70
     Davidson diagonalization with overlap
     ethr =  1.17E-06,  avg # of iterations =  9.2

     negative rho (up, down):  8.149E-02 0.000E+00

     total cpu time spent up to now is        3.2 secs

     total energy              =     -46.00649580 Ry
     estimated scf accuracy    <       0.00002622 Ry

     iteration # 14     ecut=    26.00 Ry     beta= 0.70
     Davidson diagonalization with overlap
     ethr =  1.09E-07,  avg # of iterations =  2.3

     negative rho (up, down):  8.188E-02 0.000E+00

     total cpu time spent up to now is        3.3 secs

     total energy              =     -46.00649419 Ry
     estimated scf accuracy    <       0.00000848 Ry

     iteration # 15     ecut=    26.00 Ry     beta= 0.70
     Davidson diagonalization with overlap
     ethr =  3.53E-08,  avg # of iterations =  3.0

     negative rho (up, down):  8.167E-02 0.000E+00

     total cpu time spent up to now is        3.4 secs

     total energy              =     -46.00649659 Ry
     estimated scf accuracy    <       0.00000132 Ry

     iteration # 16     ecut=    26.00 Ry     beta= 0.70
     Davidson diagonalization with overlap
     ethr =  5.50E-09,  avg # of iterations =  3.7

     negative rho (up, down):  8.160E-02 0.000E+00

     total cpu time spent up to now is        3.6 secs

     total energy              =     -46.00649701 Ry
     estimated scf accuracy    <       0.00000065 Ry

     iteration # 17     ecut=    26.00 Ry     beta= 0.70
     Davidson diagonalization with overlap
     ethr =  2.72E-09,  avg # of iterations =  1.9

     negative rho (up, down):  8.161E-02 0.000E+00

     total cpu time spent up to now is        3.7 secs

     total energy              =     -46.00649713 Ry
     estimated scf accuracy    <       0.00000012 Ry

     iteration # 18     ecut=    26.00 Ry     beta= 0.70
     Davidson diagonalization with overlap
     ethr =  5.01E-10,  avg # of iterations =  3.9

     negative rho (up, down):  8.164E-02 0.000E+00

     total cpu time spent up to now is        3.9 secs

     total energy              =     -46.00649713 Ry
     estimated scf accuracy    <       0.00000004 Ry

     iteration # 19     ecut=    26.00 Ry     beta= 0.70
     Davidson diagonalization with overlap
     ethr =  1.61E-10,  avg # of iterations =  2.5

     negative rho (up, down):  8.164E-02 0.000E+00

     total cpu time spent up to now is        4.0 secs

     End of self-consistent calculation

          k = 0.0000 0.0000 0.0000 (  1199 PWs)   bands (ev):

   -34.2847 -29.7136 -29.7136 -19.3722 -14.4374 -14.4374 -11.1392  -3.4442
    -2.8983  -2.8983  -1.9411   3.7783   3.9174   5.3004   5.3313   7.5031

          k = 0.0000 0.0962 0.0000 (  1187 PWs)   bands (ev):

   -34.4655 -29.9220 -29.5137 -19.1708 -14.4773 -13.8722 -10.6333  -3.8618
    -3.2339  -2.8358  -1.7377   3.5913   4.1450   5.0013   5.5220   7.1695

          k = 0.0000 0.1925 0.0000 (  1187 PWs)   bands (ev):

   -34.9224 -30.4519 -29.0688 -18.7392 -14.4248 -12.3223  -9.6236  -5.3101
    -4.0300  -2.7733  -1.4722   3.0501   4.8097   5.3601   6.0999   7.0702

          k = 0.0000 0.2887 0.0000 (  1183 PWs)   bands (ev):

   -35.4399 -31.0963 -28.5967 -17.9441 -13.9436 -10.0495  -8.2588  -7.2381
    -4.8981  -2.5816  -1.4334   2.9873   4.2937   5.9375   6.3920   7.0314

          k = 0.0000 0.3849 0.0000 (  1188 PWs)   bands (ev):

   -35.8858 -31.6661 -28.2297 -16.8932 -12.9957  -9.3404  -7.4036  -6.8044
    -5.6301  -2.5192  -2.4238   1.8165   3.2673   7.5194   7.8748   8.3447

          k = 0.0000 0.4811 0.0000 (  1198 PWs)   bands (ev):

   -36.2133 -32.0434 -28.0114 -15.6436 -11.8450 -11.2820  -6.1005  -5.4133
    -4.8561  -4.3278  -2.3019  -0.0581   3.6207   6.9306   9.5349   9.6590

          k = 0.0000-0.5774 0.0000 (  1194 PWs)   bands (ev):

   -36.3003 -32.1362 -27.9528 -14.8383 -12.3926 -11.1881  -6.2639  -5.3376
    -4.7212  -3.5470  -2.3303  -0.9221   3.7644   5.7928  10.7352  10.9192

          k = 0.0833 0.1443 0.0000 (  1189 PWs)   bands (ev):

   -34.7836 -30.3383 -29.1476 -18.8741 -14.5084 -12.7807  -9.9280  -4.6803
    -4.0497  -2.6923  -1.5110   3.2261   4.5897   5.1812   5.9180   7.4446

          k = 0.0833 0.2406 0.0000 (  1190 PWs)   bands (ev):

   -35.2449 -31.0062 -28.6039 -18.2423 -14.3139 -10.7870  -8.7760  -6.1864
    -5.1415  -2.4534  -1.2968   3.1360   5.2436   5.5006   5.9674   6.6644

          k = 0.0833 0.3368 0.0000 (  1184 PWs)   bands (ev):

   -35.6741 -31.6995 -28.0787 -17.3159 -13.6724  -8.2653  -8.2092  -7.3992
    -5.9692  -2.2228  -1.8473   2.6805   3.4248   6.8227   7.2413   7.5800

          k = 0.0833 0.4330 0.0000 (  1190 PWs)   bands (ev):

   -36.0289 -32.2332 -27.7065 -16.1616 -12.6779 -10.2579  -6.5658  -6.0900
    -5.6784  -3.1840  -2.0543   0.6692   3.8661   7.7091   8.6830   8.9040

          k = 0.0833 0.5292 0.0000 (  1200 PWs)   bands (ev):

   -36.2309 -32.5240 -27.5156 -14.9837 -11.9700 -11.7082  -6.8781  -5.7306
    -4.7362  -2.7756  -2.0004  -0.6410   4.1779   6.0686  10.4930  10.6439

          k = 0.1667 0.2887 0.0000 (  1184 PWs)   bands (ev):

   -35.5732 -31.8156 -27.8889 -17.4592 -14.0589  -8.4249  -7.6550  -7.1050
    -6.9405  -2.0787  -1.6363   2.9575   3.6768   6.5868   7.0260   7.3279

          k = 0.1667 0.3849 0.0000 (  1178 PWs)   bands (ev):

   -35.8134 -32.5912 -27.2090 -16.4195 -13.4656  -9.0405  -7.6773  -6.3694
    -5.9838  -2.3984  -1.7470   1.0717   4.4649   7.7076   8.2779   8.5065

          k = 0.1667 0.4811 0.0000 (  1198 PWs)   bands (ev):

   -36.0117 -33.1612 -26.7562 -15.2386 -12.6923 -10.9503  -8.1498  -6.0158
    -4.9452  -1.7101  -1.5740  -0.1098   5.1515   6.8557  10.1134  10.1458

          k = 0.1667 0.5774 0.0000 (  1196 PWs)   bands (ev):

   -36.0632 -33.3583 -26.5896 -14.4093 -12.2269 -12.0181  -8.2991  -6.5849
    -4.2286  -1.7292  -1.5038   0.5164   5.4291   5.7390  10.5401  10.9271

          k = 0.2500 0.4330 0.0000 (  1180 PWs)   bands (ev):

   -35.8647 -33.4528 -26.3935 -15.3357 -13.1598  -9.9501  -9.2668  -6.0444
    -5.0619  -1.4219  -1.2603   0.1136   5.7531   7.4537   9.8961  10.0222

          k = 0.2500 0.5292 0.0000 (  1200 PWs)   bands (ev):

   -35.8034 -34.0199 -25.9004 -14.2182 -12.8426 -11.3443  -9.8060  -6.9664
    -4.0194  -1.8873  -1.2924   2.3395   6.4127   6.7601   9.9899  10.1720

          k = 0.3333 0.5774 0.0000 (  1212 PWs)   bands (ev):

   -35.6162 -34.4851 -25.5491 -13.6403 -12.9543 -11.1273 -10.9906  -7.4048
    -3.1688  -2.6852  -1.1936   4.8528   6.4928   7.5763   7.9142   9.2267

     the Fermi energy is     3.3820 ev

!    total energy              =     -46.00649715 Ry
     estimated scf accuracy    <          1.0E-09 Ry
     smearing contrib. (-TS)   =       0.00007815 Ry
     internal energy E=F+TS    =     -46.00657529 Ry

     The total energy is F=E-TS. E is the sum of the following terms:
     one-electron contribution =   -1334.80918330 Ry
     hartree contribution      =     674.29400927 Ry
     xc contribution           =     -32.15630593 Ry
     ewald contribution        =     646.66490466 Ry

     convergence has been achieved in  19 iterations

     negative rho (up, down):  8.164E-02 0.000E+00

     Forces acting on atoms (cartesian axes, Ry/au):

     atom    1 type  1   force =     0.00000000    0.00000000  -27.53987213
     atom    2 type  1   force =     0.00000000   -0.00000000   -2.93268649
     atom    3 type  1   force =    -0.00000000   -0.00000000   -0.00218906
     atom    4 type  1   force =     0.00000000    0.00000000   -0.00558784
     atom    5 type  1   force =     0.00000000    0.00000000   27.55091394
     atom    6 type  1   force =     0.00000000    0.00000000    2.92942157

     Total force =    39.174987     Total SCF correction =     0.000157


     Computing stress (Cartesian axis) and pressure


     negative rho (up, down):  8.164E-02 0.000E+00
          total   stress  (Ry/bohr**3)                   (kbar)     P=     5739.49
   0.01110436   0.00000000   0.00000000         1633.51        0.00        0.00
   0.00000000   0.01110436   0.00000000            0.00     1633.51        0.00
   0.00000000   0.00000000   0.09483996            0.00        0.00    13951.44


     Writing all to output data dir /run/media/rfa/SATA/Skripsi/DFT/Graphene-copy/tmp/gr-ab-3L.save/ :
     XML data file, charge density, pseudopotentials, collected wavefunctions

     init_run     :      0.26s CPU      0.35s WALL (       1 calls)
     electrons    :      6.49s CPU      3.62s WALL (       1 calls)
     forces       :      0.03s CPU      0.02s WALL (       1 calls)
     stress       :      0.10s CPU      0.05s WALL (       1 calls)

     Called by init_run:
     wfcinit      :      0.11s CPU      0.06s WALL (       1 calls)
     potinit      :      0.00s CPU      0.00s WALL (       1 calls)
     hinit0       :      0.14s CPU      0.28s WALL (       1 calls)

     Called by electrons:
     c_bands      :      5.74s CPU      3.20s WALL (      19 calls)
     sum_band     :      0.59s CPU      0.33s WALL (      19 calls)
     v_of_rho     :      0.06s CPU      0.04s WALL (      20 calls)
     newd         :      0.05s CPU      0.03s WALL (      20 calls)
     mix_rho      :      0.03s CPU      0.01s WALL (      19 calls)

     Called by c_bands:
     init_us_2    :      0.11s CPU      0.06s WALL (     779 calls)
     cegterg      :      5.44s CPU      3.00s WALL (     361 calls)

     Called by *egterg:
     cdiaghg      :      1.59s CPU      0.81s WALL (    2430 calls)
     h_psi        :      3.12s CPU      1.76s WALL (    2449 calls)
     s_psi        :      0.11s CPU      0.06s WALL (    2449 calls)
     g_psi        :      0.04s CPU      0.02s WALL (    2069 calls)

     Called by h_psi:
     h_psi:calbec :      0.33s CPU      0.19s WALL (    2449 calls)
     vloc_psi     :      2.58s CPU      1.46s WALL (    2449 calls)
     add_vuspsi   :      0.14s CPU      0.07s WALL (    2449 calls)

     General routines
     calbec       :      0.43s CPU      0.23s WALL (    3133 calls)
     fft          :      0.16s CPU      0.28s WALL (     245 calls)
     ffts         :      0.00s CPU      0.00s WALL (      19 calls)
     fftw         :      2.50s CPU      1.38s WALL (   43320 calls)

     Parallel routines

     PWSCF        :      6.95s CPU      4.22s WALL


   This run was terminated on:  15: 8:54  16Apr2025            

=------------------------------------------------------------------------------=
   JOB DONE.
=------------------------------------------------------------------------------=
