
     Program PWSCF v.7.4.1 starts on 16Apr2025 at 15: 9: 3 

     This program is part of the open-source Quantum ESPRESSO suite
     for quantum simulation of materials; please cite
         "P. Giannozzi et al., J. Phys.:Condens. Matter 21 395502 (2009);
         "P. Giannozzi et al., J. Phys.:Condens. Matter 29 465901 (2017);
         "P. Giannozzi et al., J. Chem. Phys. 152 154105 (2020);
          URL http://www.quantum-espresso.org", 
     in publications or presentations arising from this work. More details at
     http://www.quantum-espresso.org/quote

     Parallel version (MPI), running on     7 processors

     MPI processes distributed on     1 nodes
     14931 MiB available memory on the printing compute node when the environment starts

     Waiting for input...
     Reading input from standard input

     Current dimensions of program PWSCF are:
     Max number of different atomic species (ntypx) = 10
     Max number of k-points (npk) =  40000
     Max angular momentum in pseudopotentials (lmaxx) =  4

     R & G space division:  proc/nbgrp/npool/nimage =       7
     Subspace diagonalization in iterative solution of the eigenvalue problem:
     a serial algorithm will be used


     Parallelization info
     --------------------
     sticks:   dense  smooth     PW     G-vecs:    dense   smooth      PW
     Min          29      29      9                 2121     2121     397
     Max          31      31     13                 2125     2125     402
     Sum         211     211     73                14861    14861    2797

     Using Slab Decomposition



     bravais-lattice index     =            4
     lattice parameter (alat)  =       4.6561  a.u.
     unit-cell volume          =     532.1899 (a.u.)^3
     number of atoms/cell      =            6
     number of atomic types    =            1
     number of electrons       =        24.00
     number of Kohn-Sham states=           16
     kinetic-energy cutoff     =      35.0000  Ry
     charge density cutoff     =     140.0000  Ry
     scf convergence threshold =      1.0E-08
     mixing beta               =       0.7000
     number of iterations used =            8  plain     mixing
     Exchange-correlation= PBE
                           (   1   4   3   4   0   0   0)

     celldm(1)=   4.656107  celldm(2)=   0.000000  celldm(3)=   6.087896
     celldm(4)=   0.000000  celldm(5)=   0.000000  celldm(6)=   0.000000

     crystal axes: (cart. coord. in units of alat)
               a(1) = (   1.000000   0.000000   0.000000 )  
               a(2) = (  -0.500000   0.866025   0.000000 )  
               a(3) = (   0.000000   0.000000   6.087896 )  

     reciprocal axes: (cart. coord. in units 2 pi/alat)
               b(1) = (  1.000000  0.577350 -0.000000 )  
               b(2) = (  0.000000  1.154701  0.000000 )  
               b(3) = (  0.000000 -0.000000  0.164260 )  


     PseudoPot. # 1 for C  read from file:
     /run/media/rfa/SATA/Skripsi/DFT/Graphene-copy/pseudo/C.pbe-n-rrkjus_psl.0.1.UPF
     MD5 check sum: 96a6a315177d77e6c95bf6fd3870f9e3
     Pseudo is Ultrasoft + core correction, Zval =  4.0
     Generated using &quot;atomic&quot; code by A. Dal Corso  v.6.3MaX
     Using radial grid of 1073 points,  4 beta functions with: 
                l(1) =   0
                l(2) =   0
                l(3) =   1
                l(4) =   1
     Q(r) pseudized with 0 coefficients 


     atomic species   valence    mass     pseudopotential
     C                 4.00    12.01070     C ( 1.00)

      6 Sym. Ops. (no inversion) found



   Cartesian axes

     site n.     atom                  positions (alat units)
         1        C      tau(   1) = (   0.0000000   0.5773503   3.0439478  )
         2        C      tau(   2) = (   0.5000000   0.2886751   3.0439478  )
         3        C      tau(   3) = (   0.0000000   0.0000000   3.2468777  )
         4        C      tau(   4) = (   0.0000000   0.5773503   3.2468777  )
         5        C      tau(   5) = (   0.0000000   0.5773503   3.4498075  )
         6        C      tau(   6) = (   0.5000000   0.2886751   3.4498075  )

     number of k points=    19  Marzari-Vanderbilt smearing, width (Ry)=  0.0200
                       cart. coord. in units 2pi/alat
        k(    1) = (   0.0000000   0.0000000   0.0000000), wk =   0.0138889
        k(    2) = (   0.0000000   0.0962250   0.0000000), wk =   0.0833333
        k(    3) = (   0.0000000   0.1924501   0.0000000), wk =   0.0833333
        k(    4) = (   0.0000000   0.2886751   0.0000000), wk =   0.0833333
        k(    5) = (   0.0000000   0.3849002   0.0000000), wk =   0.0833333
        k(    6) = (   0.0000000   0.4811252   0.0000000), wk =   0.0833333
        k(    7) = (   0.0000000  -0.5773503   0.0000000), wk =   0.0416667
        k(    8) = (   0.0833333   0.1443376   0.0000000), wk =   0.0833333
        k(    9) = (   0.0833333   0.2405626   0.0000000), wk =   0.1666667
        k(   10) = (   0.0833333   0.3367877   0.0000000), wk =   0.1666667
        k(   11) = (   0.0833333   0.4330127   0.0000000), wk =   0.1666667
        k(   12) = (   0.0833333   0.5292377   0.0000000), wk =   0.1666667
        k(   13) = (   0.1666667   0.2886751   0.0000000), wk =   0.0833333
        k(   14) = (   0.1666667   0.3849002   0.0000000), wk =   0.1666667
        k(   15) = (   0.1666667   0.4811252   0.0000000), wk =   0.1666667
        k(   16) = (   0.1666667   0.5773503   0.0000000), wk =   0.0833333
        k(   17) = (   0.2500000   0.4330127   0.0000000), wk =   0.0833333
        k(   18) = (   0.2500000   0.5292377   0.0000000), wk =   0.1666667
        k(   19) = (   0.3333333   0.5773503   0.0000000), wk =   0.0277778

     Dense  grid:    14861 G-vectors     FFT dimensions: (  18,  18, 108)

     Estimated max dynamical RAM per process >       4.93 MB

     Estimated total dynamical RAM >      34.52 MB

     Check: negative core charge=   -0.000024

     Initial potential from superposition of free atoms

     starting charge      23.9998, renormalised to      24.0000

     negative rho (up, down):  1.589E-03 0.000E+00
     Starting wfcs are   24 randomized atomic wfcs

     total cpu time spent up to now is        0.6 secs

     per-process dynamical memory:     9.9 Mb

     Self-consistent Calculation

     iteration #  1     ecut=    35.00 Ry     beta= 0.70
     Davidson diagonalization with overlap
     ethr =  1.00E-02,  avg # of iterations =  7.5

     negative rho (up, down):  1.649E-02 0.000E+00

     total cpu time spent up to now is        1.1 secs

     total energy              =     -40.17417409 Ry
     estimated scf accuracy    <      17.94786984 Ry

     iteration #  2     ecut=    35.00 Ry     beta= 0.70
     Davidson diagonalization with overlap
     ethr =  1.00E-02,  avg # of iterations = 12.9

     total cpu time spent up to now is        1.8 secs

     total energy              =     -35.74687436 Ry
     estimated scf accuracy    <      37.47542511 Ry

     iteration #  3     ecut=    35.00 Ry     beta= 0.70
     Davidson diagonalization with overlap
     c_bands:  1 eigenvalues not converged
     ethr =  1.00E-02,  avg # of iterations = 11.6

     total cpu time spent up to now is        2.4 secs

     total energy              =     -47.73267462 Ry
     estimated scf accuracy    <       2.08043481 Ry

     iteration #  4     ecut=    35.00 Ry     beta= 0.70
     Davidson diagonalization with overlap
     ethr =  8.67E-03,  avg # of iterations =  2.6

     negative rho (up, down):  5.546E-06 0.000E+00

     total cpu time spent up to now is        2.6 secs

     total energy              =     -47.56628484 Ry
     estimated scf accuracy    <       0.94234015 Ry

     iteration #  5     ecut=    35.00 Ry     beta= 0.70
     Davidson diagonalization with overlap
     ethr =  3.93E-03,  avg # of iterations =  2.4

     negative rho (up, down):  2.033E-05 0.000E+00

     total cpu time spent up to now is        2.8 secs

     total energy              =     -47.51442525 Ry
     estimated scf accuracy    <       0.44678280 Ry

     iteration #  6     ecut=    35.00 Ry     beta= 0.70
     Davidson diagonalization with overlap
     ethr =  1.86E-03,  avg # of iterations =  3.3

     negative rho (up, down):  1.219E-04 0.000E+00

     total cpu time spent up to now is        3.1 secs

     total energy              =     -47.46099809 Ry
     estimated scf accuracy    <       0.29226247 Ry

     iteration #  7     ecut=    35.00 Ry     beta= 0.70
     Davidson diagonalization with overlap
     ethr =  1.22E-03,  avg # of iterations =  3.2

     negative rho (up, down):  3.520E-03 0.000E+00

     total cpu time spent up to now is        3.4 secs

     total energy              =     -47.42284479 Ry
     estimated scf accuracy    <       0.11434549 Ry

     iteration #  8     ecut=    35.00 Ry     beta= 0.70
     Davidson diagonalization with overlap
     c_bands:  1 eigenvalues not converged
     ethr =  4.76E-04,  avg # of iterations = 10.4

     negative rho (up, down):  7.995E-03 0.000E+00

     total cpu time spent up to now is        3.8 secs

     total energy              =     -47.45375705 Ry
     estimated scf accuracy    <       0.00913956 Ry

     iteration #  9     ecut=    35.00 Ry     beta= 0.70
     Davidson diagonalization with overlap
     c_bands:  2 eigenvalues not converged
     c_bands:  2 eigenvalues not converged
     ethr =  3.81E-05,  avg # of iterations = 13.6

     negative rho (up, down):  2.540E-02 0.000E+00

     total cpu time spent up to now is        4.4 secs

     total energy              =     -47.45432845 Ry
     estimated scf accuracy    <       0.01485267 Ry

     iteration # 10     ecut=    35.00 Ry     beta= 0.70
     Davidson diagonalization with overlap
     c_bands:  1 eigenvalues not converged
     c_bands:  1 eigenvalues not converged
     ethr =  3.81E-05,  avg # of iterations = 13.5

     negative rho (up, down):  1.534E-02 0.000E+00

     total cpu time spent up to now is        4.9 secs

     total energy              =     -47.45754213 Ry
     estimated scf accuracy    <       0.00093504 Ry

     iteration # 11     ecut=    35.00 Ry     beta= 0.70
     Davidson diagonalization with overlap
     c_bands:  1 eigenvalues not converged
     c_bands:  1 eigenvalues not converged
     c_bands:  1 eigenvalues not converged
     c_bands:  1 eigenvalues not converged
     ethr =  3.90E-06,  avg # of iterations = 14.6

     negative rho (up, down):  1.752E-02 0.000E+00

     total cpu time spent up to now is        5.5 secs

     total energy              =     -47.45806415 Ry
     estimated scf accuracy    <       0.00025838 Ry

     iteration # 12     ecut=    35.00 Ry     beta= 0.70
     Davidson diagonalization with overlap
     c_bands:  1 eigenvalues not converged
     ethr =  1.08E-06,  avg # of iterations =  7.9

     negative rho (up, down):  1.830E-02 0.000E+00

     total cpu time spent up to now is        5.8 secs

     total energy              =     -47.45813529 Ry
     estimated scf accuracy    <       0.00004369 Ry

     iteration # 13     ecut=    35.00 Ry     beta= 0.70
     Davidson diagonalization with overlap
     ethr =  1.82E-07,  avg # of iterations =  9.5

     negative rho (up, down):  1.795E-02 0.000E+00

     total cpu time spent up to now is        6.3 secs

     total energy              =     -47.45812279 Ry
     estimated scf accuracy    <       0.00016234 Ry

     iteration # 14     ecut=    35.00 Ry     beta= 0.70
     Davidson diagonalization with overlap
     ethr =  1.82E-07,  avg # of iterations =  4.7

     negative rho (up, down):  1.798E-02 0.000E+00

     total cpu time spent up to now is        6.7 secs

     total energy              =     -47.45816550 Ry
     estimated scf accuracy    <       0.00000239 Ry

     iteration # 15     ecut=    35.00 Ry     beta= 0.70
     Davidson diagonalization with overlap
     ethr =  9.94E-09,  avg # of iterations =  6.2

     negative rho (up, down):  1.796E-02 0.000E+00

     total cpu time spent up to now is        7.1 secs

     total energy              =     -47.45816726 Ry
     estimated scf accuracy    <       0.00000191 Ry

     iteration # 16     ecut=    35.00 Ry     beta= 0.70
     Davidson diagonalization with overlap
     ethr =  7.98E-09,  avg # of iterations =  1.9

     negative rho (up, down):  1.795E-02 0.000E+00

     total cpu time spent up to now is        7.3 secs

     total energy              =     -47.45816729 Ry
     estimated scf accuracy    <       0.00000035 Ry

     iteration # 17     ecut=    35.00 Ry     beta= 0.70
     Davidson diagonalization with overlap
     ethr =  1.46E-09,  avg # of iterations =  5.3

     negative rho (up, down):  1.795E-02 0.000E+00

     total cpu time spent up to now is        7.7 secs

     total energy              =     -47.45816752 Ry
     estimated scf accuracy    <       0.00000006 Ry

     iteration # 18     ecut=    35.00 Ry     beta= 0.70
     Davidson diagonalization with overlap
     ethr =  2.56E-10,  avg # of iterations =  5.5

     negative rho (up, down):  1.795E-02 0.000E+00

     total cpu time spent up to now is        8.1 secs

     total energy              =     -47.45816756 Ry
     estimated scf accuracy    <       0.00000003 Ry

     iteration # 19     ecut=    35.00 Ry     beta= 0.70
     Davidson diagonalization with overlap
     ethr =  1.34E-10,  avg # of iterations =  1.9

     negative rho (up, down):  1.795E-02 0.000E+00

     total cpu time spent up to now is        8.3 secs

     End of self-consistent calculation

          k = 0.0000 0.0000 0.0000 (  1907 PWs)   bands (ev):

   -33.6546 -28.1142 -28.1142 -20.3531 -13.9429 -13.9429 -11.4045  -4.3138
    -2.2315  -2.2315  -2.1982   3.5321   4.5984   5.6015   5.7765   7.7222

          k = 0.0000 0.0962 0.0000 (  1889 PWs)   bands (ev):

   -33.7850 -28.3541 -28.0231 -20.2326 -14.0180 -13.3539 -10.9318  -4.8363
    -2.5818  -2.3291  -2.0347   3.1632   4.8157   5.5686   5.9641   7.6818

          k = 0.0000 0.1925 0.0000 (  1891 PWs)   bands (ev):

   -34.1146 -28.9479 -27.8096 -19.8117 -13.9432 -11.7347  -9.8324  -6.2863
    -3.3996  -2.5271  -1.7136   2.7492   5.4578   6.0652   6.4833   7.5707

          k = 0.0000 0.2887 0.0000 (  1870 PWs)   bands (ev):

   -34.5181 -29.6457 -27.5862 -18.9978 -13.4237  -9.3902  -8.4741  -8.2400
    -4.2955  -2.6221  -1.6907   2.8560   4.8493   6.5840   7.1072   7.3620

          k = 0.0000 0.3849 0.0000 (  1848 PWs)   bands (ev):

   -34.8821 -30.2518 -27.4230 -17.8805 -12.4391 -10.3613  -7.0533  -6.6654
    -5.0378  -2.6241  -2.4521   2.0974   3.2539   8.1542   8.5723   8.7094

          k = 0.0000 0.4811 0.0000 (  1838 PWs)   bands (ev):

   -35.1295 -30.6522 -27.3333 -16.6227 -12.3882 -11.2451  -5.8223  -5.5149
    -4.0703  -3.6687  -2.6661  -0.0285   3.6468   7.5287  10.1604  10.2839

          k = 0.0000-0.5774 0.0000 (  1852 PWs)   bands (ev):

   -35.2166 -30.7924 -27.3068 -15.7897 -13.5773 -10.5986  -5.6782  -5.4990
    -4.0306  -2.8049  -2.7310  -1.0038   3.8091   6.3363  11.2259  11.3247

          k = 0.0833 0.1443 0.0000 (  1893 PWs)   bands (ev):

   -34.0112 -28.8215 -27.8155 -19.9039 -14.0440 -12.2087 -10.1663  -5.6751
    -3.4480  -2.2463  -1.7918   2.8986   5.2466   5.8717   6.3213   7.6313

          k = 0.0833 0.2406 0.0000 (  1862 PWs)   bands (ev):

   -34.3586 -29.5656 -27.4761 -19.3438 -13.8064 -10.1448  -8.9930  -7.3254
    -4.6913  -2.1616  -1.6030   2.9755   5.8414   6.2071   6.6809   6.9843

          k = 0.0833 0.3368 0.0000 (  1859 PWs)   bands (ev):

   -34.7104 -30.3139 -27.1602 -18.4058 -13.1245  -9.3199  -7.7291  -7.4633
    -5.6790  -2.0801  -2.0020   3.1017   3.3921   7.4045   7.9492   7.9658

          k = 0.0833 0.4330 0.0000 (  1850 PWs)   bands (ev):

   -34.9822 -30.8921 -26.9405 -17.2182 -12.0723 -11.3995  -6.3609  -6.3290
    -4.9092  -2.9573  -2.0313   0.7826   3.8747   8.2448   9.3749   9.5721

          k = 0.0833 0.5292 0.0000 (  1844 PWs)   bands (ev):

   -35.1278 -31.2024 -26.8321 -15.9579 -13.1387 -11.0854  -6.6556  -5.5783
    -4.3696  -2.3377  -2.0047  -0.5543   4.1977   6.6424  11.0164  11.1299

          k = 0.1667 0.2887 0.0000 (  1865 PWs)   bands (ev):

   -34.6222 -30.4651 -26.9136 -18.5936 -13.5017  -8.6548  -7.9100  -7.7113
    -6.4236  -1.8471  -1.7085   3.4604   3.7071   7.1291   7.7086   7.7348

          k = 0.1667 0.3849 0.0000 (  1860 PWs)   bands (ev):

   -34.8168 -31.3053 -26.3827 -17.4971 -12.8634 -10.3160  -7.6372  -6.7006
    -5.1743  -2.4634  -1.3547   1.2501   4.5891   8.0577   8.9721   9.1971

          k = 0.1667 0.4811 0.0000 (  1855 PWs)   bands (ev):

   -34.9174 -31.8929 -26.0252 -16.2469 -12.1700 -12.0205  -8.2586  -5.6465
    -4.7693  -1.7820  -1.1706   0.2045   5.2529   7.4340  10.6616  10.6825

          k = 0.1667 0.5774 0.0000 (  1848 PWs)   bands (ev):

   -34.9450 -32.1047 -25.9006 -15.2867 -13.2854 -11.5546  -8.4424  -5.6951
    -4.6153  -1.9542  -1.0849   1.0973   5.5003   6.3147  11.0124  11.3049

          k = 0.2500 0.4330 0.0000 (  1856 PWs)   bands (ev):

   -34.7868 -32.2170 -25.6533 -16.3595 -12.4728 -11.4488  -9.2123  -5.6348
    -4.9349  -1.5586  -0.8865   0.5105   6.0280   7.9464  10.4351  10.4718

          k = 0.2500 0.5292 0.0000 (  1855 PWs)   bands (ev):

   -34.6807 -32.8010 -25.2226 -15.1379 -12.7635 -12.0798  -9.9393  -5.8206
    -4.6993  -2.0699  -0.6580   2.8835   6.9736   7.0688  10.3837  10.5469

          k = 0.3333 0.5774 0.0000 (  1860 PWs)   bands (ev):

   -34.4792 -33.2405 -24.9034 -14.4036 -13.1521 -12.1160 -10.6806  -6.1712
    -4.3108  -2.4951  -0.4930   5.4931   6.8238   8.2183   8.3651   9.7236

     the Fermi energy is     3.3257 ev

!    total energy              =     -47.45816756 Ry
     estimated scf accuracy    <          7.8E-09 Ry
     smearing contrib. (-TS)   =       0.00077946 Ry
     internal energy E=F+TS    =     -47.45894702 Ry

     The total energy is F=E-TS. E is the sum of the following terms:
     one-electron contribution =   -1337.95044862 Ry
     hartree contribution      =     676.16025578 Ry
     xc contribution           =     -32.33365860 Ry
     ewald contribution        =     646.66490442 Ry

     convergence has been achieved in  19 iterations

     negative rho (up, down):  1.795E-02 0.000E+00

     Forces acting on atoms (cartesian axes, Ry/au):

     atom    1 type  1   force =     0.00000000   -0.00000000  -25.54310302
     atom    2 type  1   force =     0.00000000    0.00000000   -2.76665420
     atom    3 type  1   force =    -0.00000000   -0.00000000    0.00092964
     atom    4 type  1   force =     0.00000000   -0.00000000   -0.00386814
     atom    5 type  1   force =     0.00000000   -0.00000000   25.54438222
     atom    6 type  1   force =     0.00000000   -0.00000000    2.76831350

     Total force =    36.335706     Total SCF correction =     0.000155


     Computing stress (Cartesian axis) and pressure


     negative rho (up, down):  1.795E-02 0.000E+00
          total   stress  (Ry/bohr**3)                   (kbar)     P=     5891.82
   0.01517496   0.00000000   0.00000000         2232.31        0.00        0.00
   0.00000000   0.01517496   0.00000000            0.00     2232.31        0.00
   0.00000000   0.00000000   0.08980544            0.00        0.00    13210.84


     Writing all to output data dir /run/media/rfa/SATA/Skripsi/DFT/Graphene-copy/tmp/gr-ab-3L.save/ :
     XML data file, charge density, pseudopotentials, collected wavefunctions

     init_run     :      0.42s CPU      0.53s WALL (       1 calls)
     electrons    :     14.59s CPU      7.74s WALL (       1 calls)
     forces       :      0.04s CPU      0.02s WALL (       1 calls)
     stress       :      0.13s CPU      0.08s WALL (       1 calls)

     Called by init_run:
     wfcinit      :      0.20s CPU      0.11s WALL (       1 calls)
     potinit      :      0.00s CPU      0.01s WALL (       1 calls)
     hinit0       :      0.20s CPU      0.40s WALL (       1 calls)

     Called by electrons:
     c_bands      :     13.06s CPU      6.93s WALL (      19 calls)
     sum_band     :      1.26s CPU      0.66s WALL (      19 calls)
     v_of_rho     :      0.11s CPU      0.06s WALL (      20 calls)
     newd         :      0.09s CPU      0.06s WALL (      20 calls)
     mix_rho      :      0.04s CPU      0.02s WALL (      19 calls)

     Called by c_bands:
     init_us_2    :      0.19s CPU      0.09s WALL (     779 calls)
     cegterg      :     12.62s CPU      6.66s WALL (     361 calls)

     Called by *egterg:
     cdiaghg      :      2.15s CPU      1.09s WALL (    2993 calls)
     h_psi        :      8.81s CPU      4.67s WALL (    3012 calls)
     s_psi        :      0.21s CPU      0.12s WALL (    3012 calls)
     g_psi        :      0.08s CPU      0.04s WALL (    2632 calls)

     Called by h_psi:
     h_psi:calbec :      0.71s CPU      0.39s WALL (    3012 calls)
     vloc_psi     :      7.56s CPU      3.99s WALL (    3012 calls)
     add_vuspsi   :      0.44s CPU      0.22s WALL (    3012 calls)

     General routines
     calbec       :      0.84s CPU      0.46s WALL (    3696 calls)
     fft          :      0.23s CPU      0.41s WALL (     245 calls)
     ffts         :      0.00s CPU      0.00s WALL (      19 calls)
     fftw         :      7.54s CPU      3.95s WALL (   51612 calls)

     Parallel routines

     PWSCF        :     15.25s CPU      8.60s WALL


   This run was terminated on:  15: 9:11  16Apr2025            

=------------------------------------------------------------------------------=
   JOB DONE.
=------------------------------------------------------------------------------=
