
     Program PWSCF v.7.4.1 starts on 16Apr2025 at 15: 8:55 

     This program is part of the open-source Quantum ESPRESSO suite
     for quantum simulation of materials; please cite
         "P. Giannozzi et al., J. Phys.:Condens. Matter 21 395502 (2009);
         "P. Giannozzi et al., J. Phys.:Condens. Matter 29 465901 (2017);
         "P. Giannozzi et al., J. Chem. Phys. 152 154105 (2020);
          URL http://www.quantum-espresso.org", 
     in publications or presentations arising from this work. More details at
     http://www.quantum-espresso.org/quote

     Parallel version (MPI), running on     7 processors

     MPI processes distributed on     1 nodes
     14939 MiB available memory on the printing compute node when the environment starts

     Waiting for input...
     Reading input from standard input

     Current dimensions of program PWSCF are:
     Max number of different atomic species (ntypx) = 10
     Max number of k-points (npk) =  40000
     Max angular momentum in pseudopotentials (lmaxx) =  4

     R & G space division:  proc/nbgrp/npool/nimage =       7
     Subspace diagonalization in iterative solution of the eigenvalue problem:
     a serial algorithm will be used


     Parallelization info
     --------------------
     sticks:   dense  smooth     PW     G-vecs:    dense   smooth      PW
     Min          26      26      8                 1676     1676     330
     Max          27      27     10                 1681     1681     342
     Sum         187     187     61                11745    11745    2349

     Using Slab Decomposition



     bravais-lattice index     =            4
     lattice parameter (alat)  =       4.6561  a.u.
     unit-cell volume          =     532.1899 (a.u.)^3
     number of atoms/cell      =            6
     number of atomic types    =            1
     number of electrons       =        24.00
     number of Kohn-Sham states=           16
     kinetic-energy cutoff     =      30.0000  Ry
     charge density cutoff     =     120.0000  Ry
     scf convergence threshold =      1.0E-08
     mixing beta               =       0.7000
     number of iterations used =            8  plain     mixing
     Exchange-correlation= PBE
                           (   1   4   3   4   0   0   0)

     celldm(1)=   4.656107  celldm(2)=   0.000000  celldm(3)=   6.087896
     celldm(4)=   0.000000  celldm(5)=   0.000000  celldm(6)=   0.000000

     crystal axes: (cart. coord. in units of alat)
               a(1) = (   1.000000   0.000000   0.000000 )  
               a(2) = (  -0.500000   0.866025   0.000000 )  
               a(3) = (   0.000000   0.000000   6.087896 )  

     reciprocal axes: (cart. coord. in units 2 pi/alat)
               b(1) = (  1.000000  0.577350 -0.000000 )  
               b(2) = (  0.000000  1.154701  0.000000 )  
               b(3) = (  0.000000 -0.000000  0.164260 )  


     PseudoPot. # 1 for C  read from file:
     /run/media/rfa/SATA/Skripsi/DFT/Graphene-copy/pseudo/C.pbe-n-rrkjus_psl.0.1.UPF
     MD5 check sum: 96a6a315177d77e6c95bf6fd3870f9e3
     Pseudo is Ultrasoft + core correction, Zval =  4.0
     Generated using &quot;atomic&quot; code by A. Dal Corso  v.6.3MaX
     Using radial grid of 1073 points,  4 beta functions with: 
                l(1) =   0
                l(2) =   0
                l(3) =   1
                l(4) =   1
     Q(r) pseudized with 0 coefficients 


     atomic species   valence    mass     pseudopotential
     C                 4.00    12.01070     C ( 1.00)

      6 Sym. Ops. (no inversion) found



   Cartesian axes

     site n.     atom                  positions (alat units)
         1        C      tau(   1) = (   0.0000000   0.5773503   3.0439478  )
         2        C      tau(   2) = (   0.5000000   0.2886751   3.0439478  )
         3        C      tau(   3) = (   0.0000000   0.0000000   3.2468777  )
         4        C      tau(   4) = (   0.0000000   0.5773503   3.2468777  )
         5        C      tau(   5) = (   0.0000000   0.5773503   3.4498075  )
         6        C      tau(   6) = (   0.5000000   0.2886751   3.4498075  )

     number of k points=    19  Marzari-Vanderbilt smearing, width (Ry)=  0.0200
                       cart. coord. in units 2pi/alat
        k(    1) = (   0.0000000   0.0000000   0.0000000), wk =   0.0138889
        k(    2) = (   0.0000000   0.0962250   0.0000000), wk =   0.0833333
        k(    3) = (   0.0000000   0.1924501   0.0000000), wk =   0.0833333
        k(    4) = (   0.0000000   0.2886751   0.0000000), wk =   0.0833333
        k(    5) = (   0.0000000   0.3849002   0.0000000), wk =   0.0833333
        k(    6) = (   0.0000000   0.4811252   0.0000000), wk =   0.0833333
        k(    7) = (   0.0000000  -0.5773503   0.0000000), wk =   0.0416667
        k(    8) = (   0.0833333   0.1443376   0.0000000), wk =   0.0833333
        k(    9) = (   0.0833333   0.2405626   0.0000000), wk =   0.1666667
        k(   10) = (   0.0833333   0.3367877   0.0000000), wk =   0.1666667
        k(   11) = (   0.0833333   0.4330127   0.0000000), wk =   0.1666667
        k(   12) = (   0.0833333   0.5292377   0.0000000), wk =   0.1666667
        k(   13) = (   0.1666667   0.2886751   0.0000000), wk =   0.0833333
        k(   14) = (   0.1666667   0.3849002   0.0000000), wk =   0.1666667
        k(   15) = (   0.1666667   0.4811252   0.0000000), wk =   0.1666667
        k(   16) = (   0.1666667   0.5773503   0.0000000), wk =   0.0833333
        k(   17) = (   0.2500000   0.4330127   0.0000000), wk =   0.0833333
        k(   18) = (   0.2500000   0.5292377   0.0000000), wk =   0.1666667
        k(   19) = (   0.3333333   0.5773503   0.0000000), wk =   0.0277778

     Dense  grid:    11745 G-vectors     FFT dimensions: (  18,  18, 100)

     Estimated max dynamical RAM per process >       4.00 MB

     Estimated total dynamical RAM >      27.99 MB

     Check: negative core charge=   -0.000020

     Initial potential from superposition of free atoms

     starting charge      23.9998, renormalised to      24.0000

     negative rho (up, down):  3.977E-03 0.000E+00
     Starting wfcs are   24 randomized atomic wfcs

     total cpu time spent up to now is        0.5 secs

     per-process dynamical memory:     9.4 Mb

     Self-consistent Calculation

     iteration #  1     ecut=    30.00 Ry     beta= 0.70
     Davidson diagonalization with overlap
     ethr =  1.00E-02,  avg # of iterations =  6.8

     negative rho (up, down):  4.450E-02 0.000E+00

     total cpu time spent up to now is        0.9 secs

     total energy              =     -40.30354237 Ry
     estimated scf accuracy    <      16.38338856 Ry

     iteration #  2     ecut=    30.00 Ry     beta= 0.70
     Davidson diagonalization with overlap
     ethr =  1.00E-02,  avg # of iterations = 12.0

     negative rho (up, down):  9.863E-06 0.000E+00

     total cpu time spent up to now is        1.5 secs

     total energy              =     -35.01909828 Ry
     estimated scf accuracy    <      37.44176602 Ry

     iteration #  3     ecut=    30.00 Ry     beta= 0.70
     Davidson diagonalization with overlap
     c_bands:  1 eigenvalues not converged
     ethr =  1.00E-02,  avg # of iterations =  9.6

     negative rho (up, down):  6.198E-05 0.000E+00

     total cpu time spent up to now is        1.9 secs

     total energy              =     -47.17216002 Ry
     estimated scf accuracy    <       2.10405947 Ry

     iteration #  4     ecut=    30.00 Ry     beta= 0.70
     Davidson diagonalization with overlap
     ethr =  8.77E-03,  avg # of iterations =  1.6

     negative rho (up, down):  3.237E-04 0.000E+00

     total cpu time spent up to now is        2.1 secs

     total energy              =     -46.97902992 Ry
     estimated scf accuracy    <       0.94974610 Ry

     iteration #  5     ecut=    30.00 Ry     beta= 0.70
     Davidson diagonalization with overlap
     ethr =  3.96E-03,  avg # of iterations =  2.1

     negative rho (up, down):  1.135E-03 0.000E+00

     total cpu time spent up to now is        2.3 secs

     total energy              =     -46.90130249 Ry
     estimated scf accuracy    <       0.48731661 Ry

     iteration #  6     ecut=    30.00 Ry     beta= 0.70
     Davidson diagonalization with overlap
     ethr =  2.03E-03,  avg # of iterations =  3.7

     negative rho (up, down):  3.939E-03 0.000E+00

     total cpu time spent up to now is        2.5 secs

     total energy              =     -46.83080835 Ry
     estimated scf accuracy    <       0.31380279 Ry

     iteration #  7     ecut=    30.00 Ry     beta= 0.70
     Davidson diagonalization with overlap
     ethr =  1.31E-03,  avg # of iterations =  3.7

     negative rho (up, down):  9.141E-03 0.000E+00

     total cpu time spent up to now is        2.7 secs

     total energy              =     -46.81028182 Ry
     estimated scf accuracy    <       0.12524342 Ry

     iteration #  8     ecut=    30.00 Ry     beta= 0.70
     Davidson diagonalization with overlap
     ethr =  5.22E-04,  avg # of iterations =  5.1

     negative rho (up, down):  3.536E-02 0.000E+00

     total cpu time spent up to now is        3.0 secs

     total energy              =     -46.78610522 Ry
     estimated scf accuracy    <       0.05411437 Ry

     iteration #  9     ecut=    30.00 Ry     beta= 0.70
     Davidson diagonalization with overlap
     ethr =  2.25E-04,  avg # of iterations = 10.9

     negative rho (up, down):  4.292E-02 0.000E+00

     total cpu time spent up to now is        3.4 secs

     total energy              =     -46.79506170 Ry
     estimated scf accuracy    <       0.00201405 Ry

     iteration # 10     ecut=    30.00 Ry     beta= 0.70
     Davidson diagonalization with overlap
     c_bands:  1 eigenvalues not converged
     c_bands:  1 eigenvalues not converged
     c_bands:  1 eigenvalues not converged
     c_bands:  1 eigenvalues not converged
     c_bands:  2 eigenvalues not converged
     c_bands:  1 eigenvalues not converged
     ethr =  8.39E-06,  avg # of iterations = 17.1

     negative rho (up, down):  5.028E-02 0.000E+00

     total cpu time spent up to now is        3.9 secs

     total energy              =     -46.79737663 Ry
     estimated scf accuracy    <       0.00031372 Ry

     iteration # 11     ecut=    30.00 Ry     beta= 0.70
     Davidson diagonalization with overlap
     c_bands:  1 eigenvalues not converged
     c_bands:  1 eigenvalues not converged
     c_bands:  1 eigenvalues not converged
     c_bands:  1 eigenvalues not converged
     c_bands:  1 eigenvalues not converged
     c_bands:  1 eigenvalues not converged
     ethr =  1.31E-06,  avg # of iterations = 15.1

     negative rho (up, down):  4.539E-02 0.000E+00

     total cpu time spent up to now is        4.4 secs

     total energy              =     -46.79736308 Ry
     estimated scf accuracy    <       0.00032504 Ry

     iteration # 12     ecut=    30.00 Ry     beta= 0.70
     Davidson diagonalization with overlap
     c_bands:  1 eigenvalues not converged
     c_bands:  1 eigenvalues not converged
     c_bands:  1 eigenvalues not converged
     ethr =  1.31E-06,  avg # of iterations = 11.1

     negative rho (up, down):  4.563E-02 0.000E+00

     total cpu time spent up to now is        4.8 secs

     total energy              =     -46.79739761 Ry
     estimated scf accuracy    <       0.00003829 Ry

     iteration # 13     ecut=    30.00 Ry     beta= 0.70
     Davidson diagonalization with overlap
     ethr =  1.60E-07,  avg # of iterations =  4.1

     negative rho (up, down):  4.615E-02 0.000E+00

     total cpu time spent up to now is        5.0 secs

     total energy              =     -46.79740254 Ry
     estimated scf accuracy    <       0.00001294 Ry

     iteration # 14     ecut=    30.00 Ry     beta= 0.70
     Davidson diagonalization with overlap
     ethr =  5.39E-08,  avg # of iterations =  4.3

     negative rho (up, down):  4.592E-02 0.000E+00

     total cpu time spent up to now is        5.3 secs

     total energy              =     -46.79740812 Ry
     estimated scf accuracy    <       0.00000507 Ry

     iteration # 15     ecut=    30.00 Ry     beta= 0.70
     Davidson diagonalization with overlap
     ethr =  2.11E-08,  avg # of iterations =  2.0

     negative rho (up, down):  4.586E-02 0.000E+00

     total cpu time spent up to now is        5.5 secs

     total energy              =     -46.79740912 Ry
     estimated scf accuracy    <       0.00000028 Ry

     iteration # 16     ecut=    30.00 Ry     beta= 0.70
     Davidson diagonalization with overlap
     ethr =  1.18E-09,  avg # of iterations =  6.6

     negative rho (up, down):  4.587E-02 0.000E+00

     total cpu time spent up to now is        5.9 secs

     total energy              =     -46.79740950 Ry
     estimated scf accuracy    <       0.00000013 Ry

     iteration # 17     ecut=    30.00 Ry     beta= 0.70
     Davidson diagonalization with overlap
     ethr =  5.48E-10,  avg # of iterations =  1.8

     negative rho (up, down):  4.587E-02 0.000E+00

     total cpu time spent up to now is        6.1 secs

     total energy              =     -46.79740949 Ry
     estimated scf accuracy    <       0.00000005 Ry

     iteration # 18     ecut=    30.00 Ry     beta= 0.70
     Davidson diagonalization with overlap
     ethr =  2.20E-10,  avg # of iterations =  3.8

     negative rho (up, down):  4.587E-02 0.000E+00

     total cpu time spent up to now is        6.4 secs

     End of self-consistent calculation

          k = 0.0000 0.0000 0.0000 (  1435 PWs)   bands (ev):

   -33.8739 -28.6927 -28.6927 -19.5099 -14.1058 -14.1058 -11.3082  -3.2121
    -2.3857  -2.3857  -2.1355   3.8474   4.1465   5.3955   5.4566   7.6804

          k = 0.0000 0.0962 0.0000 (  1419 PWs)   bands (ev):

   -34.0242 -28.9201 -28.5536 -19.3464 -14.1699 -13.5303 -10.8489  -3.7170
    -2.7367  -2.3680  -1.9468   3.5826   4.3688   5.1755   5.6582   7.4367

          k = 0.0000 0.1925 0.0000 (  1451 PWs)   bands (ev):

   -34.4122 -29.5098 -28.2965 -18.9630 -14.1274 -11.9395  -9.7705  -5.3319
    -3.5496  -2.3707  -1.6131   3.0496   5.0285   5.5957   6.2219   7.3080

          k = 0.0000 0.2887 0.0000 (  1473 PWs)   bands (ev):

   -34.8747 -30.1958 -27.9784 -18.2105 -13.6393  -9.6395  -8.4247  -7.4585
    -4.4497  -2.3211  -1.6089   3.0069   4.6098   6.1582   6.6336   7.1335

          k = 0.0000 0.3849 0.0000 (  1477 PWs)   bands (ev):

   -35.2782 -30.7897 -27.7264 -17.1132 -12.6744  -9.6370  -6.9859  -6.9519
    -5.1924  -2.5136  -2.2049   1.9686   3.3272   7.7393   8.1147   8.4808

          k = 0.0000 0.4811 0.0000 (  1483 PWs)   bands (ev):

   -35.5456 -31.1854 -27.5814 -15.8244 -11.7203 -11.4819  -5.6775  -5.6720
    -4.4066  -3.9997  -2.1933  -0.0549   3.6790   7.2767   9.7594   9.8943

          k = 0.0000-0.5774 0.0000 (  1488 PWs)   bands (ev):

   -35.6391 -31.3263 -27.5333 -14.7807 -12.8712 -10.8109  -5.8360  -5.2798
    -4.4722  -3.1902  -2.0721  -0.9579   3.8489   6.1231  10.9948  11.1206

          k = 0.0833 0.1443 0.0000 (  1444 PWs)   bands (ev):

   -34.2930 -29.3783 -28.3310 -19.0569 -14.2185 -12.4129 -10.0973  -4.6468
    -3.5893  -2.2032  -1.6711   3.2452   4.8108   5.4108   6.0468   7.4798

          k = 0.0833 0.2406 0.0000 (  1470 PWs)   bands (ev):

   -34.6945 -30.1071 -27.9147 -18.5221 -14.0097 -10.3955  -8.9455  -6.3853
    -4.7796  -2.0711  -1.5450   3.1640   5.5620   5.7816   6.2084   6.7442

          k = 0.0833 0.3368 0.0000 (  1485 PWs)   bands (ev):

   -35.0918 -30.8481 -27.5148 -17.6255 -13.3571  -8.5443  -7.8783  -7.5598
    -5.6984  -2.0046  -1.9407   2.9109   3.4783   7.0236   7.4830   7.7014

          k = 0.0833 0.4330 0.0000 (  1487 PWs)   bands (ev):

   -35.3916 -31.4096 -27.2261 -16.4178 -12.3211 -10.6825  -6.3119  -6.2682
    -5.2815  -3.1001  -1.8245   0.7161   3.9217   7.9851   8.9219   9.1408

          k = 0.0833 0.5292 0.0000 (  1493 PWs)   bands (ev):

   -35.5491 -31.7132 -27.0818 -15.0664 -12.4903 -11.3319  -6.6258  -5.4815
    -4.7456  -2.5838  -1.7451  -0.6012   4.2391   6.4065  10.7453  10.8586

          k = 0.1667 0.2887 0.0000 (  1472 PWs)   bands (ev):

   -34.9929 -30.9796 -27.2867 -17.7815 -13.7278  -8.0245  -7.8201  -7.6245
    -6.5631  -1.8282  -1.6892   3.2502   3.7775   6.7751   7.2686   7.4315

          k = 0.1667 0.3849 0.0000 (  1483 PWs)   bands (ev):

   -35.2163 -31.8050 -26.6937 -16.6769 -13.1233  -9.4012  -7.6286  -6.5913
    -5.5752  -2.4749  -1.3394   1.1521   4.6058   7.8157   8.5193   8.7473

          k = 0.1667 0.4811 0.0000 (  1489 PWs)   bands (ev):

   -35.3356 -32.3804 -26.2917 -15.3773 -12.3059 -11.3968  -8.1377  -5.6077
    -5.1044  -1.8531  -1.1624   0.0831   5.2686   7.1572  10.3291  10.3823

          k = 0.1667 0.5774 0.0000 (  1496 PWs)   bands (ev):

   -35.3697 -32.5896 -26.1544 -14.3839 -12.6858 -11.8492  -8.3098  -6.0046
    -4.6100  -1.9759  -1.1211   0.8560   5.5266   6.0691  10.8163  11.1243

          k = 0.2500 0.4330 0.0000 (  1494 PWs)   bands (ev):

   -35.2013 -32.6900 -25.9261 -15.5026 -12.7762 -10.3992  -9.2961  -5.5884
    -5.3123  -1.5834  -0.9623   0.3763   5.9549   7.6483  10.1107  10.2554

          k = 0.2500 0.5292 0.0000 (  1491 PWs)   bands (ev):

   -35.1018 -33.2707 -25.4688 -14.1994 -12.4136 -11.9456  -9.9076  -6.2961
    -4.5016  -2.0780  -0.7909   2.6634   6.7002   6.9811  10.2659  10.3428

          k = 0.3333 0.5774 0.0000 (  1482 PWs)   bands (ev):

   -34.8897 -33.7076 -25.1356 -13.3013 -12.4706 -12.2894 -10.7999  -6.6722
    -3.9707  -2.5786  -0.6523   5.2410   6.6961   7.8818   8.1770   9.5626

     the Fermi energy is     3.4309 ev

!    total energy              =     -46.79740951 Ry
     estimated scf accuracy    <          7.5E-09 Ry
     smearing contrib. (-TS)   =       0.00023949 Ry
     internal energy E=F+TS    =     -46.79764900 Ry

     The total energy is F=E-TS. E is the sum of the following terms:
     one-electron contribution =   -1336.67918737 Ry
     hartree contribution      =     675.48019949 Ry
     xc contribution           =     -32.26356578 Ry
     ewald contribution        =     646.66490466 Ry

     convergence has been achieved in  18 iterations

     negative rho (up, down):  4.587E-02 0.000E+00

     Forces acting on atoms (cartesian axes, Ry/au):

     atom    1 type  1   force =     0.00000000    0.00000000  -26.99541063
     atom    2 type  1   force =     0.00000000    0.00000000   -2.82060800
     atom    3 type  1   force =     0.00000000    0.00000000   -0.00136931
     atom    4 type  1   force =     0.00000000    0.00000000    0.00042488
     atom    5 type  1   force =     0.00000000   -0.00000000   26.99874796
     atom    6 type  1   force =     0.00000000   -0.00000000    2.81821510

     Total force =    38.387273     Total SCF correction =     0.000323


     Computing stress (Cartesian axis) and pressure


     negative rho (up, down):  4.587E-02 0.000E+00
          total   stress  (Ry/bohr**3)                   (kbar)     P=     5934.40
   0.01380491   0.00000000   0.00000000         2030.77        0.00        0.00
   0.00000000   0.01380491  -0.00000000            0.00     2030.77       -0.00
   0.00000000  -0.00000000   0.09341387            0.00       -0.00    13741.65


     Writing all to output data dir /run/media/rfa/SATA/Skripsi/DFT/Graphene-copy/tmp/gr-ab-3L.save/ :
     XML data file, charge density, pseudopotentials, collected wavefunctions

     init_run     :      0.40s CPU      0.48s WALL (       1 calls)
     electrons    :     10.86s CPU      5.82s WALL (       1 calls)
     forces       :      0.04s CPU      0.02s WALL (       1 calls)
     stress       :      0.11s CPU      0.06s WALL (       1 calls)

     Called by init_run:
     wfcinit      :      0.18s CPU      0.09s WALL (       1 calls)
     potinit      :      0.00s CPU      0.01s WALL (       1 calls)
     hinit0       :      0.21s CPU      0.37s WALL (       1 calls)

     Called by electrons:
     c_bands      :      9.63s CPU      5.17s WALL (      18 calls)
     sum_band     :      1.01s CPU      0.53s WALL (      18 calls)
     v_of_rho     :      0.10s CPU      0.05s WALL (      19 calls)
     newd         :      0.07s CPU      0.04s WALL (      19 calls)
     mix_rho      :      0.04s CPU      0.02s WALL (      18 calls)

     Called by c_bands:
     init_us_2    :      0.14s CPU      0.07s WALL (     741 calls)
     cegterg      :      9.26s CPU      4.94s WALL (     342 calls)

     Called by *egterg:
     cdiaghg      :      1.81s CPU      0.93s WALL (    2648 calls)
     h_psi        :      6.43s CPU      3.45s WALL (    2667 calls)
     s_psi        :      0.15s CPU      0.08s WALL (    2667 calls)
     g_psi        :      0.05s CPU      0.03s WALL (    2306 calls)

     Called by h_psi:
     h_psi:calbec :      0.46s CPU      0.24s WALL (    2667 calls)
     vloc_psi     :      5.66s CPU      3.02s WALL (    2667 calls)
     add_vuspsi   :      0.24s CPU      0.13s WALL (    2667 calls)

     General routines
     calbec       :      0.55s CPU      0.29s WALL (    3332 calls)
     fft          :      0.24s CPU      0.37s WALL (     234 calls)
     ffts         :      0.00s CPU      0.00s WALL (      18 calls)
     fftw         :      5.73s CPU      3.02s WALL (   45498 calls)

     Parallel routines

     PWSCF        :     11.49s CPU      6.58s WALL


   This run was terminated on:  15: 9: 1  16Apr2025            

=------------------------------------------------------------------------------=
   JOB DONE.
=------------------------------------------------------------------------------=
