
     Program PWSCF v.7.4.1 starts on 16Apr2025 at 15: 8:29 

     This program is part of the open-source Quantum ESPRESSO suite
     for quantum simulation of materials; please cite
         "P. Giannozzi et al., J. Phys.:Condens. Matter 21 395502 (2009);
         "P. Giannozzi et al., J. Phys.:Condens. Matter 29 465901 (2017);
         "P. Giannozzi et al., J. Chem. Phys. 152 154105 (2020);
          URL http://www.quantum-espresso.org", 
     in publications or presentations arising from this work. More details at
     http://www.quantum-espresso.org/quote

     Parallel version (MPI), running on     7 processors

     MPI processes distributed on     1 nodes
     14935 MiB available memory on the printing compute node when the environment starts

     Waiting for input...
     Reading input from standard input

     Current dimensions of program PWSCF are:
     Max number of different atomic species (ntypx) = 10
     Max number of k-points (npk) =  40000
     Max angular momentum in pseudopotentials (lmaxx) =  4

     R & G space division:  proc/nbgrp/npool/nimage =       7
     Subspace diagonalization in iterative solution of the eigenvalue problem:
     a serial algorithm will be used


     Parallelization info
     --------------------
     sticks:   dense  smooth     PW     G-vecs:    dense   smooth      PW
     Min          17      17      5                  919      919     181
     Max          18      18      6                  934      934     204
     Sum         121     121     37                 6489     6489    1321

     Using Slab Decomposition



     bravais-lattice index     =            4
     lattice parameter (alat)  =       4.6561  a.u.
     unit-cell volume          =     532.1899 (a.u.)^3
     number of atoms/cell      =            6
     number of atomic types    =            1
     number of electrons       =        24.00
     number of Kohn-Sham states=           16
     kinetic-energy cutoff     =      20.0000  Ry
     charge density cutoff     =      80.0000  Ry
     scf convergence threshold =      1.0E-08
     mixing beta               =       0.7000
     number of iterations used =            8  plain     mixing
     Exchange-correlation= PBE
                           (   1   4   3   4   0   0   0)

     celldm(1)=   4.656107  celldm(2)=   0.000000  celldm(3)=   6.087896
     celldm(4)=   0.000000  celldm(5)=   0.000000  celldm(6)=   0.000000

     crystal axes: (cart. coord. in units of alat)
               a(1) = (   1.000000   0.000000   0.000000 )  
               a(2) = (  -0.500000   0.866025   0.000000 )  
               a(3) = (   0.000000   0.000000   6.087896 )  

     reciprocal axes: (cart. coord. in units 2 pi/alat)
               b(1) = (  1.000000  0.577350 -0.000000 )  
               b(2) = (  0.000000  1.154701  0.000000 )  
               b(3) = (  0.000000 -0.000000  0.164260 )  


     PseudoPot. # 1 for C  read from file:
     /run/media/rfa/SATA/Skripsi/DFT/Graphene-copy/pseudo/C.pbe-n-rrkjus_psl.0.1.UPF
     MD5 check sum: 96a6a315177d77e6c95bf6fd3870f9e3
     Pseudo is Ultrasoft + core correction, Zval =  4.0
     Generated using &quot;atomic&quot; code by A. Dal Corso  v.6.3MaX
     Using radial grid of 1073 points,  4 beta functions with: 
                l(1) =   0
                l(2) =   0
                l(3) =   1
                l(4) =   1
     Q(r) pseudized with 0 coefficients 


     atomic species   valence    mass     pseudopotential
     C                 4.00    12.01070     C ( 1.00)

      6 Sym. Ops. (no inversion) found



   Cartesian axes

     site n.     atom                  positions (alat units)
         1        C      tau(   1) = (   0.0000000   0.5773503   3.0439478  )
         2        C      tau(   2) = (   0.5000000   0.2886751   3.0439478  )
         3        C      tau(   3) = (   0.0000000   0.0000000   3.2468777  )
         4        C      tau(   4) = (   0.0000000   0.5773503   3.2468777  )
         5        C      tau(   5) = (   0.0000000   0.5773503   3.4498075  )
         6        C      tau(   6) = (   0.5000000   0.2886751   3.4498075  )

     number of k points=    19  Marzari-Vanderbilt smearing, width (Ry)=  0.0200
                       cart. coord. in units 2pi/alat
        k(    1) = (   0.0000000   0.0000000   0.0000000), wk =   0.0138889
        k(    2) = (   0.0000000   0.0962250   0.0000000), wk =   0.0833333
        k(    3) = (   0.0000000   0.1924501   0.0000000), wk =   0.0833333
        k(    4) = (   0.0000000   0.2886751   0.0000000), wk =   0.0833333
        k(    5) = (   0.0000000   0.3849002   0.0000000), wk =   0.0833333
        k(    6) = (   0.0000000   0.4811252   0.0000000), wk =   0.0833333
        k(    7) = (   0.0000000  -0.5773503   0.0000000), wk =   0.0416667
        k(    8) = (   0.0833333   0.1443376   0.0000000), wk =   0.0833333
        k(    9) = (   0.0833333   0.2405626   0.0000000), wk =   0.1666667
        k(   10) = (   0.0833333   0.3367877   0.0000000), wk =   0.1666667
        k(   11) = (   0.0833333   0.4330127   0.0000000), wk =   0.1666667
        k(   12) = (   0.0833333   0.5292377   0.0000000), wk =   0.1666667
        k(   13) = (   0.1666667   0.2886751   0.0000000), wk =   0.0833333
        k(   14) = (   0.1666667   0.3849002   0.0000000), wk =   0.1666667
        k(   15) = (   0.1666667   0.4811252   0.0000000), wk =   0.1666667
        k(   16) = (   0.1666667   0.5773503   0.0000000), wk =   0.0833333
        k(   17) = (   0.2500000   0.4330127   0.0000000), wk =   0.0833333
        k(   18) = (   0.2500000   0.5292377   0.0000000), wk =   0.1666667
        k(   19) = (   0.3333333   0.5773503   0.0000000), wk =   0.0277778

     Dense  grid:     6489 G-vectors     FFT dimensions: (  15,  15,  81)

     Estimated max dynamical RAM per process >       2.26 MB

     Estimated total dynamical RAM >      15.84 MB

     Check: negative core charge=   -0.000365

     Initial potential from superposition of free atoms

     starting charge      23.9998, renormalised to      24.0000

     negative rho (up, down):  1.371E-02 0.000E+00
     Starting wfcs are   24 randomized atomic wfcs

     total cpu time spent up to now is        0.2 secs

     per-process dynamical memory:     8.5 Mb

     Self-consistent Calculation

     iteration #  1     ecut=    20.00 Ry     beta= 0.70
     Davidson diagonalization with overlap
     ethr =  1.00E-02,  avg # of iterations =  4.8

     negative rho (up, down):  1.479E-01 0.000E+00

     total cpu time spent up to now is        0.4 secs

     total energy              =     -38.93068870 Ry
     estimated scf accuracy    <       9.93083222 Ry

     iteration #  2     ecut=    20.00 Ry     beta= 0.70
     Davidson diagonalization with overlap
     ethr =  1.00E-02,  avg # of iterations =  8.3

     negative rho (up, down):  2.427E-03 0.000E+00

     total cpu time spent up to now is        0.6 secs

     total energy              =     -33.00128909 Ry
     estimated scf accuracy    <      31.17385346 Ry

     iteration #  3     ecut=    20.00 Ry     beta= 0.70
     Davidson diagonalization with overlap
     ethr =  1.00E-02,  avg # of iterations =  6.9

     negative rho (up, down):  1.668E-02 0.000E+00

     total cpu time spent up to now is        0.8 secs

     total energy              =     -43.16027725 Ry
     estimated scf accuracy    <       1.61100742 Ry

     iteration #  4     ecut=    20.00 Ry     beta= 0.70
     Davidson diagonalization with overlap
     ethr =  6.71E-03,  avg # of iterations =  1.5

     negative rho (up, down):  3.871E-02 0.000E+00

     total cpu time spent up to now is        0.9 secs

     total energy              =     -43.05767177 Ry
     estimated scf accuracy    <       0.70827408 Ry

     iteration #  5     ecut=    20.00 Ry     beta= 0.70
     Davidson diagonalization with overlap
     ethr =  2.95E-03,  avg # of iterations =  1.2

     negative rho (up, down):  8.975E-02 0.000E+00

     total cpu time spent up to now is        1.0 secs

     total energy              =     -42.84070201 Ry
     estimated scf accuracy    <       0.43926891 Ry

     iteration #  6     ecut=    20.00 Ry     beta= 0.70
     Davidson diagonalization with overlap
     ethr =  1.83E-03,  avg # of iterations =  3.3

     negative rho (up, down):  1.004E-01 0.000E+00

     total cpu time spent up to now is        1.1 secs

     total energy              =     -42.83477556 Ry
     estimated scf accuracy    <       0.12410281 Ry

     iteration #  7     ecut=    20.00 Ry     beta= 0.70
     Davidson diagonalization with overlap
     ethr =  5.17E-04,  avg # of iterations =  3.3

     negative rho (up, down):  1.151E-01 0.000E+00

     total cpu time spent up to now is        1.2 secs

     total energy              =     -42.81081837 Ry
     estimated scf accuracy    <       0.09135442 Ry

     iteration #  8     ecut=    20.00 Ry     beta= 0.70
     Davidson diagonalization with overlap
     ethr =  3.81E-04,  avg # of iterations =  3.2

     negative rho (up, down):  1.947E-01 0.000E+00

     total cpu time spent up to now is        1.3 secs

     total energy              =     -42.76168035 Ry
     estimated scf accuracy    <       0.05728318 Ry

     iteration #  9     ecut=    20.00 Ry     beta= 0.70
     Davidson diagonalization with overlap
     ethr =  2.39E-04,  avg # of iterations =  8.2

     negative rho (up, down):  1.838E-01 0.000E+00

     total cpu time spent up to now is        1.4 secs

     total energy              =     -42.76038973 Ry
     estimated scf accuracy    <       0.11711389 Ry

     iteration # 10     ecut=    20.00 Ry     beta= 0.70
     Davidson diagonalization with overlap
     ethr =  2.39E-04,  avg # of iterations =  2.0

     negative rho (up, down):  1.850E-01 0.000E+00

     total cpu time spent up to now is        1.6 secs

     total energy              =     -42.77091561 Ry
     estimated scf accuracy    <       0.00062625 Ry

     iteration # 11     ecut=    20.00 Ry     beta= 0.70
     Davidson diagonalization with overlap
     c_bands:  1 eigenvalues not converged
     c_bands:  1 eigenvalues not converged
     ethr =  2.61E-06,  avg # of iterations =  8.1

     negative rho (up, down):  1.743E-01 0.000E+00

     total cpu time spent up to now is        1.7 secs

     total energy              =     -42.77024510 Ry
     estimated scf accuracy    <       0.00120403 Ry

     iteration # 12     ecut=    20.00 Ry     beta= 0.70
     Davidson diagonalization with overlap
     ethr =  2.61E-06,  avg # of iterations = 10.5

     negative rho (up, down):  1.727E-01 0.000E+00

     total cpu time spent up to now is        1.9 secs

     total energy              =     -42.77158693 Ry
     estimated scf accuracy    <       0.00079242 Ry

     iteration # 13     ecut=    20.00 Ry     beta= 0.70
     Davidson diagonalization with overlap
     ethr =  2.61E-06,  avg # of iterations =  5.6

     negative rho (up, down):  1.574E-01 0.000E+00

     total cpu time spent up to now is        2.1 secs

     total energy              =     -42.77818902 Ry
     estimated scf accuracy    <       0.00126915 Ry

     iteration # 14     ecut=    20.00 Ry     beta= 0.70
     Davidson diagonalization with overlap
     ethr =  2.61E-06,  avg # of iterations = 11.2

     negative rho (up, down):  1.549E-01 0.000E+00

     total cpu time spent up to now is        2.3 secs

     total energy              =     -42.78055384 Ry
     estimated scf accuracy    <       0.01033017 Ry

     iteration # 15     ecut=    20.00 Ry     beta= 0.70
     Davidson diagonalization with overlap
     ethr =  2.61E-06,  avg # of iterations =  4.8

     negative rho (up, down):  1.626E-01 0.000E+00

     total cpu time spent up to now is        2.4 secs

     total energy              =     -42.77550737 Ry
     estimated scf accuracy    <       0.01263216 Ry

     iteration # 16     ecut=    20.00 Ry     beta= 0.70
     Davidson diagonalization with overlap
     ethr =  2.61E-06,  avg # of iterations =  7.1

     negative rho (up, down):  1.950E-01 0.000E+00

     total cpu time spent up to now is        2.6 secs

     total energy              =     -42.77001198 Ry
     estimated scf accuracy    <       0.00639952 Ry

     iteration # 17     ecut=    20.00 Ry     beta= 0.70
     Davidson diagonalization with overlap
     c_bands:  1 eigenvalues not converged
     ethr =  2.61E-06,  avg # of iterations = 11.8

     negative rho (up, down):  1.906E-01 0.000E+00

     total cpu time spent up to now is        2.9 secs

     total energy              =     -42.77145742 Ry
     estimated scf accuracy    <       0.15903368 Ry

     iteration # 18     ecut=    20.00 Ry     beta= 0.70
     Davidson diagonalization with overlap
     ethr =  2.61E-06,  avg # of iterations =  6.5

     negative rho (up, down):  1.802E-01 0.000E+00

     total cpu time spent up to now is        3.0 secs

     total energy              =     -42.76466061 Ry
     estimated scf accuracy    <       0.03966819 Ry

     iteration # 19     ecut=    20.00 Ry     beta= 0.70
     Davidson diagonalization with overlap
     ethr =  2.61E-06,  avg # of iterations =  9.5

     negative rho (up, down):  1.765E-01 0.000E+00

     total cpu time spent up to now is        3.2 secs

     total energy              =     -42.77113922 Ry
     estimated scf accuracy    <       0.00037336 Ry

     iteration # 20     ecut=    20.00 Ry     beta= 0.70
     Davidson diagonalization with overlap
     ethr =  1.56E-06,  avg # of iterations =  7.5

     negative rho (up, down):  1.309E-01 0.000E+00

     total cpu time spent up to now is        3.4 secs

     total energy              =     -42.80220123 Ry
     estimated scf accuracy    <       0.00064005 Ry

     iteration # 21     ecut=    20.00 Ry     beta= 0.70
     Davidson diagonalization with overlap
     c_bands:  1 eigenvalues not converged
     c_bands:  1 eigenvalues not converged
     c_bands:  1 eigenvalues not converged
     ethr =  1.56E-06,  avg # of iterations = 14.5

     negative rho (up, down):  1.277E-01 0.000E+00

     total cpu time spent up to now is        3.7 secs

     total energy              =     -42.81864294 Ry
     estimated scf accuracy    <       0.04820699 Ry

     iteration # 22     ecut=    20.00 Ry     beta= 0.70
     Davidson diagonalization with overlap
     ethr =  1.56E-06,  avg # of iterations =  5.4

     negative rho (up, down):  1.839E-01 0.000E+00

     total cpu time spent up to now is        3.8 secs

     total energy              =     -42.76446359 Ry
     estimated scf accuracy    <       0.05988337 Ry

     iteration # 23     ecut=    20.00 Ry     beta= 0.70
     Davidson diagonalization with overlap
     c_bands:  1 eigenvalues not converged
     c_bands:  1 eigenvalues not converged
     ethr =  1.56E-06,  avg # of iterations = 14.8

     negative rho (up, down):  2.210E-01 0.000E+00

     total cpu time spent up to now is        4.1 secs

     total energy              =     -42.78613088 Ry
     estimated scf accuracy    <       0.00157864 Ry

     iteration # 24     ecut=    20.00 Ry     beta= 0.70
     Davidson diagonalization with overlap
     c_bands:  1 eigenvalues not converged
     c_bands:  1 eigenvalues not converged
     ethr =  1.56E-06,  avg # of iterations = 12.9

     negative rho (up, down):  2.090E-01 0.000E+00

     total cpu time spent up to now is        4.4 secs

     total energy              =     -42.82480517 Ry
     estimated scf accuracy    <       3.00541616 Ry

     iteration # 25     ecut=    20.00 Ry     beta= 0.70
     Davidson diagonalization with overlap
     ethr =  1.56E-06,  avg # of iterations =  9.5

     negative rho (up, down):  2.270E-01 0.000E+00

     total cpu time spent up to now is        4.6 secs

     total energy              =     -42.94947779 Ry
     estimated scf accuracy    <       1.47682604 Ry

     iteration # 26     ecut=    20.00 Ry     beta= 0.70
     Davidson diagonalization with overlap
     ethr =  1.56E-06,  avg # of iterations =  9.4

     negative rho (up, down):  1.916E-01 0.000E+00

     total cpu time spent up to now is        4.8 secs

     total energy              =     -42.62733988 Ry
     estimated scf accuracy    <       3.94998577 Ry

     iteration # 27     ecut=    20.00 Ry     beta= 0.70
     Davidson diagonalization with overlap
     c_bands:  1 eigenvalues not converged
     c_bands:  1 eigenvalues not converged
     c_bands:  1 eigenvalues not converged
     ethr =  1.56E-06,  avg # of iterations = 13.7

     negative rho (up, down):  1.932E-01 0.000E+00

     total cpu time spent up to now is        5.1 secs

     total energy              =     -42.77758919 Ry
     estimated scf accuracy    <       0.06753654 Ry

     iteration # 28     ecut=    20.00 Ry     beta= 0.70
     Davidson diagonalization with overlap
     ethr =  1.56E-06,  avg # of iterations =  4.2

     negative rho (up, down):  1.947E-01 0.000E+00

     total cpu time spent up to now is        5.2 secs

     total energy              =     -42.78032978 Ry
     estimated scf accuracy    <       0.10921645 Ry

     iteration # 29     ecut=    20.00 Ry     beta= 0.70
     Davidson diagonalization with overlap
     ethr =  1.56E-06,  avg # of iterations =  5.1

     negative rho (up, down):  1.610E-01 0.000E+00

     total cpu time spent up to now is        5.4 secs

     total energy              =     -42.71694967 Ry
     estimated scf accuracy    <       0.16369453 Ry

     iteration # 30     ecut=    20.00 Ry     beta= 0.70
     Davidson diagonalization with overlap
     c_bands:  2 eigenvalues not converged
     c_bands:  1 eigenvalues not converged
     ethr =  1.56E-06,  avg # of iterations = 14.7

     negative rho (up, down):  2.227E-01 0.000E+00

     total cpu time spent up to now is        5.7 secs

     total energy              =     -42.77962401 Ry
     estimated scf accuracy    <       0.00675573 Ry

     iteration # 31     ecut=    20.00 Ry     beta= 0.70
     Davidson diagonalization with overlap
     c_bands:  1 eigenvalues not converged
     ethr =  1.56E-06,  avg # of iterations = 14.9

     negative rho (up, down):  1.646E-01 0.000E+00

     total cpu time spent up to now is        6.0 secs

     total energy              =     -42.37080618 Ry
     estimated scf accuracy    <       3.78763775 Ry

     iteration # 32     ecut=    20.00 Ry     beta= 0.70
     Davidson diagonalization with overlap
     c_bands:  1 eigenvalues not converged
     c_bands:  2 eigenvalues not converged
     c_bands:  1 eigenvalues not converged
     c_bands:  2 eigenvalues not converged
     c_bands:  1 eigenvalues not converged
     c_bands:  3 eigenvalues not converged
     c_bands:  1 eigenvalues not converged
     c_bands:  1 eigenvalues not converged
     c_bands:  1 eigenvalues not converged
     c_bands:  1 eigenvalues not converged
     ethr =  1.56E-06,  avg # of iterations = 18.1

     negative rho (up, down):  1.672E-01 0.000E+00

     total cpu time spent up to now is        6.3 secs

     total energy              =     -42.77253464 Ry
     estimated scf accuracy    <       0.00444845 Ry

     iteration # 33     ecut=    20.00 Ry     beta= 0.70
     Davidson diagonalization with overlap
     ethr =  1.56E-06,  avg # of iterations =  6.7

     negative rho (up, down):  1.612E-01 0.000E+00

     total cpu time spent up to now is        6.5 secs

     total energy              =     -42.77518282 Ry
     estimated scf accuracy    <       0.00300200 Ry

     iteration # 34     ecut=    20.00 Ry     beta= 0.70
     Davidson diagonalization with overlap
     ethr =  1.56E-06,  avg # of iterations =  7.5

     negative rho (up, down):  1.631E-01 0.000E+00

     total cpu time spent up to now is        6.7 secs

     total energy              =     -42.77424879 Ry
     estimated scf accuracy    <       0.00664958 Ry

     iteration # 35     ecut=    20.00 Ry     beta= 0.70
     Davidson diagonalization with overlap
     ethr =  1.56E-06,  avg # of iterations =  4.6

     negative rho (up, down):  1.653E-01 0.000E+00

     total cpu time spent up to now is        6.8 secs

     total energy              =     -42.77324608 Ry
     estimated scf accuracy    <       0.00533056 Ry

     iteration # 36     ecut=    20.00 Ry     beta= 0.70
     Davidson diagonalization with overlap
     ethr =  1.56E-06,  avg # of iterations =  6.0

     negative rho (up, down):  1.680E-01 0.000E+00

     total cpu time spent up to now is        6.9 secs

     total energy              =     -42.77225998 Ry
     estimated scf accuracy    <       0.00398899 Ry

     iteration # 37     ecut=    20.00 Ry     beta= 0.70
     Davidson diagonalization with overlap
     ethr =  1.56E-06,  avg # of iterations =  6.5

     negative rho (up, down):  1.964E-01 0.000E+00

     total cpu time spent up to now is        7.1 secs

     total energy              =     -42.77273531 Ry
     estimated scf accuracy    <       0.00267645 Ry

     iteration # 38     ecut=    20.00 Ry     beta= 0.70
     Davidson diagonalization with overlap
     c_bands:  2 eigenvalues not converged
     ethr =  1.56E-06,  avg # of iterations = 11.4

     negative rho (up, down):  1.596E-01 0.000E+00

     total cpu time spent up to now is        7.3 secs

     total energy              =     -42.63920671 Ry
     estimated scf accuracy    <       0.51454307 Ry

     iteration # 39     ecut=    20.00 Ry     beta= 0.70
     Davidson diagonalization with overlap
     c_bands:  2 eigenvalues not converged
     c_bands:  2 eigenvalues not converged
     c_bands:  1 eigenvalues not converged
     c_bands:  2 eigenvalues not converged
     ethr =  1.56E-06,  avg # of iterations = 15.6

     negative rho (up, down):  1.634E-01 0.000E+00

     total cpu time spent up to now is        7.6 secs

     total energy              =     -42.77497943 Ry
     estimated scf accuracy    <       0.00882820 Ry

     iteration # 40     ecut=    20.00 Ry     beta= 0.70
     Davidson diagonalization with overlap
     ethr =  1.56E-06,  avg # of iterations =  6.0

     negative rho (up, down):  1.646E-01 0.000E+00

     total cpu time spent up to now is        7.8 secs

     total energy              =     -42.77447403 Ry
     estimated scf accuracy    <       0.00597377 Ry

     iteration # 41     ecut=    20.00 Ry     beta= 0.70
     Davidson diagonalization with overlap
     ethr =  1.56E-06,  avg # of iterations =  3.5

     negative rho (up, down):  1.655E-01 0.000E+00

     total cpu time spent up to now is        7.9 secs

     total energy              =     -42.77400713 Ry
     estimated scf accuracy    <       0.00517286 Ry

     iteration # 42     ecut=    20.00 Ry     beta= 0.70
     Davidson diagonalization with overlap
     ethr =  1.56E-06,  avg # of iterations =  4.3

     negative rho (up, down):  1.663E-01 0.000E+00

     total cpu time spent up to now is        8.0 secs

     total energy              =     -42.77366472 Ry
     estimated scf accuracy    <       0.00456872 Ry

     iteration # 43     ecut=    20.00 Ry     beta= 0.70
     Davidson diagonalization with overlap
     ethr =  1.56E-06,  avg # of iterations =  3.0

     negative rho (up, down):  1.663E-01 0.000E+00

     total cpu time spent up to now is        8.1 secs

     total energy              =     -42.77364056 Ry
     estimated scf accuracy    <       0.00412347 Ry

     iteration # 44     ecut=    20.00 Ry     beta= 0.70
     Davidson diagonalization with overlap
     ethr =  1.56E-06,  avg # of iterations =  1.0

     negative rho (up, down):  1.682E-01 0.000E+00

     total cpu time spent up to now is        8.2 secs

     total energy              =     -42.77285380 Ry
     estimated scf accuracy    <       0.00408864 Ry

     iteration # 45     ecut=    20.00 Ry     beta= 0.70
     Davidson diagonalization with overlap
     ethr =  1.56E-06,  avg # of iterations =  5.9

     negative rho (up, down):  1.673E-01 0.000E+00

     total cpu time spent up to now is        8.4 secs

     total energy              =     -42.77321189 Ry
     estimated scf accuracy    <       0.00307336 Ry

     iteration # 46     ecut=    20.00 Ry     beta= 0.70
     Davidson diagonalization with overlap
     ethr =  1.56E-06,  avg # of iterations =  2.5

     negative rho (up, down):  1.762E-01 0.000E+00

     total cpu time spent up to now is        8.5 secs

     total energy              =     -42.77065492 Ry
     estimated scf accuracy    <       0.00352062 Ry

     iteration # 47     ecut=    20.00 Ry     beta= 0.70
     Davidson diagonalization with overlap
     ethr =  1.56E-06,  avg # of iterations =  9.8

     negative rho (up, down):  1.811E-01 0.000E+00

     total cpu time spent up to now is        8.7 secs

     total energy              =     -42.77052755 Ry
     estimated scf accuracy    <       0.00035567 Ry

     iteration # 48     ecut=    20.00 Ry     beta= 0.70
     Davidson diagonalization with overlap
     c_bands:  1 eigenvalues not converged
     ethr =  1.48E-06,  avg # of iterations =  9.0

     negative rho (up, down):  1.812E-01 0.000E+00

     total cpu time spent up to now is        8.9 secs

     total energy              =     -42.77061684 Ry
     estimated scf accuracy    <       0.00003937 Ry

     iteration # 49     ecut=    20.00 Ry     beta= 0.70
     Davidson diagonalization with overlap
     ethr =  1.64E-07,  avg # of iterations =  1.3

     negative rho (up, down):  1.813E-01 0.000E+00

     total cpu time spent up to now is        9.0 secs

     total energy              =     -42.77062049 Ry
     estimated scf accuracy    <       0.00005173 Ry

     iteration # 50     ecut=    20.00 Ry     beta= 0.70
     Davidson diagonalization with overlap
     ethr =  1.64E-07,  avg # of iterations =  1.0

     negative rho (up, down):  1.813E-01 0.000E+00

     total cpu time spent up to now is        9.1 secs

     total energy              =     -42.77062397 Ry
     estimated scf accuracy    <       0.00006271 Ry

     iteration # 51     ecut=    20.00 Ry     beta= 0.70
     Davidson diagonalization with overlap
     ethr =  1.64E-07,  avg # of iterations =  1.0

     negative rho (up, down):  1.813E-01 0.000E+00

     total cpu time spent up to now is        9.2 secs

     total energy              =     -42.77062309 Ry
     estimated scf accuracy    <       0.00007207 Ry

     iteration # 52     ecut=    20.00 Ry     beta= 0.70
     Davidson diagonalization with overlap
     ethr =  1.64E-07,  avg # of iterations =  1.0

     negative rho (up, down):  1.814E-01 0.000E+00

     total cpu time spent up to now is        9.3 secs

     total energy              =     -42.77062727 Ry
     estimated scf accuracy    <       0.00006991 Ry

     iteration # 53     ecut=    20.00 Ry     beta= 0.70
     Davidson diagonalization with overlap
     ethr =  1.64E-07,  avg # of iterations =  1.0

     negative rho (up, down):  1.807E-01 0.000E+00

     total cpu time spent up to now is        9.3 secs

     total energy              =     -42.77059757 Ry
     estimated scf accuracy    <       0.00008268 Ry

     iteration # 54     ecut=    20.00 Ry     beta= 0.70
     Davidson diagonalization with overlap
     ethr =  1.64E-07,  avg # of iterations =  1.8

     negative rho (up, down):  1.804E-01 0.000E+00

     total cpu time spent up to now is        9.5 secs

     total energy              =     -42.77059581 Ry
     estimated scf accuracy    <       0.00001741 Ry

     iteration # 55     ecut=    20.00 Ry     beta= 0.70
     Davidson diagonalization with overlap
     ethr =  7.25E-08,  avg # of iterations =  1.5

     negative rho (up, down):  1.800E-01 0.000E+00

     total cpu time spent up to now is        9.6 secs

     total energy              =     -42.77059438 Ry
     estimated scf accuracy    <       0.00000373 Ry

     iteration # 56     ecut=    20.00 Ry     beta= 0.70
     Davidson diagonalization with overlap
     ethr =  1.55E-08,  avg # of iterations =  3.6

     negative rho (up, down):  1.800E-01 0.000E+00

     total cpu time spent up to now is        9.7 secs

     total energy              =     -42.77059522 Ry
     estimated scf accuracy    <       0.00000106 Ry

     iteration # 57     ecut=    20.00 Ry     beta= 0.70
     Davidson diagonalization with overlap
     ethr =  4.44E-09,  avg # of iterations =  1.2

     negative rho (up, down):  1.800E-01 0.000E+00

     total cpu time spent up to now is        9.8 secs

     total energy              =     -42.77059462 Ry
     estimated scf accuracy    <       0.00000084 Ry

     iteration # 58     ecut=    20.00 Ry     beta= 0.70
     Davidson diagonalization with overlap
     ethr =  3.48E-09,  avg # of iterations =  1.4

     negative rho (up, down):  1.800E-01 0.000E+00

     total cpu time spent up to now is        9.9 secs

     total energy              =     -42.77059418 Ry
     estimated scf accuracy    <       0.00000024 Ry

     iteration # 59     ecut=    20.00 Ry     beta= 0.70
     Davidson diagonalization with overlap
     ethr =  1.01E-09,  avg # of iterations =  2.9

     negative rho (up, down):  1.800E-01 0.000E+00

     total cpu time spent up to now is       10.0 secs

     End of self-consistent calculation

          k = 0.0000 0.0000 0.0000 (   815 PWs)   bands (ev):

   -36.0528 -32.3783 -32.3783 -20.3241 -15.7864 -15.7864 -10.2025  -4.9086
    -3.9674  -3.9674  -1.3640   3.5908   3.7125   5.2504   5.4871   7.4310

          k = 0.0000 0.0962 0.0000 (   825 PWs)   bands (ev):

   -36.2848 -32.6322 -32.1692 -20.2289 -15.7880 -15.2276  -9.9669  -5.5962
    -4.5960  -4.2969  -1.3102   3.4527   3.9210   4.7657   5.4572   6.7508

          k = 0.0000 0.1925 0.0000 (   824 PWs)   bands (ev):

   -36.9829 -33.0818 -31.6923 -19.7485 -15.6220 -13.6229  -8.9130  -6.8305
    -5.4170  -4.2941  -0.4449   3.0154   4.5904   4.9300   5.9719   6.3554

          k = 0.0000 0.2887 0.0000 (   796 PWs)   bands (ev):

   -37.2960 -33.4107 -30.3877 -18.9584 -14.1334 -10.7904  -8.5665  -7.2670
    -6.2192  -4.1112   0.6599   2.7274   3.5499   5.7216   5.9428   7.2215

          k = 0.0000 0.3849 0.0000 (   806 PWs)   bands (ev):

   -37.7010 -34.3747 -29.7727 -17.9702 -13.3055 -10.7191  -7.7685  -7.0420
    -6.0420  -4.1296  -1.9304   2.2265   2.8001   7.2877   7.4233   8.6968

          k = 0.0000 0.4811 0.0000 (   800 PWs)   bands (ev):

   -38.0166 -34.8194 -29.5790 -16.7828 -12.5181 -12.0222  -7.4442  -5.0671
    -5.0659  -3.9720  -3.6794   0.6447   3.0998   7.9365   9.1823   9.3432

          k = 0.0000-0.5774 0.0000 (   806 PWs)   bands (ev):

   -38.1318 -34.9730 -29.5403 -16.0467 -13.5071 -11.3259  -7.6423  -5.9379
    -3.7463  -3.7324  -3.5233  -0.3105   3.2549   6.3100  10.2021  11.5279

          k = 0.0833 0.1443 0.0000 (   809 PWs)   bands (ev):

   -36.5546 -32.9015 -31.5430 -19.8718 -15.6473 -13.9955  -9.1302  -6.0981
    -5.2513  -3.9958  -0.4733   3.2756   4.3707   4.7939   5.8904   7.0562

          k = 0.0833 0.2406 0.0000 (   817 PWs)   bands (ev):

   -37.3525 -33.8293 -30.8264 -19.2578 -15.2868 -11.8313  -7.9418  -7.6193
    -6.5158  -3.9375   0.3544   3.0050   3.9398   5.2754   5.5236   6.7980

          k = 0.0833 0.3368 0.0000 (   808 PWs)   bands (ev):

   -37.6257 -34.3428 -29.8214 -18.3898 -14.1715  -9.6945  -8.5537  -7.3603
    -6.5480  -4.0001  -0.8901   2.6095   3.0838   6.6139   6.7903   8.0443

          k = 0.0833 0.4330 0.0000 (   803 PWs)   bands (ev):

   -37.8564 -34.7651 -29.2923 -17.2721 -12.9766 -11.5795  -7.9490  -5.8969
    -5.2405  -3.7227  -3.1278   1.3648   3.4066   8.3901   8.4708   9.3619

          k = 0.0833 0.5292 0.0000 (   808 PWs)   bands (ev):

   -38.0307 -35.1795 -29.1371 -16.1967 -13.1470 -12.0058  -8.2596  -6.0619
    -4.0491  -3.7084  -2.5549  -0.0888   3.6638   7.0843   9.9590  10.6133

          k = 0.1667 0.2887 0.0000 (   809 PWs)   bands (ev):

   -37.6149 -34.5019 -29.7159 -18.5082 -14.8616  -8.6352  -8.6057  -8.2551
    -6.7835  -3.6917  -0.5187   2.6920   3.5089   6.3938   6.5844   7.8759

          k = 0.1667 0.3849 0.0000 (   802 PWs)   bands (ev):

   -37.7973 -35.0836 -28.9236 -17.4988 -14.0169 -10.4213  -9.0795  -5.7750
    -5.3548  -3.3990  -2.4904   1.8911   4.3568   7.9422   8.0690   8.9591

          k = 0.1667 0.4811 0.0000 (   790 PWs)   bands (ev):

   -37.7668 -35.3745 -28.3046 -16.3450 -12.8896 -12.1244  -9.4803  -5.8834
    -4.1870  -3.0341  -0.6075   0.5434   4.9290   8.2862   9.6830   9.9256

          k = 0.1667 0.5774 0.0000 (   796 PWs)   bands (ev):

   -37.7957 -35.5894 -28.1998 -15.6397 -13.1598 -12.4034  -9.6386  -6.7585
    -3.5263  -3.2352  -0.5290   1.0745   5.1647   7.1012  10.0323  10.9043

          k = 0.2500 0.4330 0.0000 (   799 PWs)   bands (ev):

   -37.7734 -35.7725 -28.0461 -16.4388 -13.6143 -11.1861 -10.6105  -6.0173
    -4.3481  -2.9888  -0.4376   0.6485   5.6626   8.4884   9.5482   9.7410

          k = 0.2500 0.5292 0.0000 (   796 PWs)   bands (ev):

   -37.5842 -36.0666 -27.4855 -15.4145 -12.9539 -12.4893 -11.0640  -7.2629
    -3.3451  -3.0163  -0.6786   2.8357   6.6269   7.3762   9.4941  10.3218

          k = 0.3333 0.5774 0.0000 (   783 PWs)   bands (ev):

   -37.3343 -36.1270 -27.0366 -14.8193 -12.6411 -12.4535 -11.8852  -7.6790
    -2.9063  -2.6691  -1.2335   6.1956   6.2821   8.3056   8.4893  10.3252

     the Fermi energy is     3.1340 ev

!    total energy              =     -42.77059418 Ry
     estimated scf accuracy    <          1.9E-09 Ry
     smearing contrib. (-TS)   =      -0.00011823 Ry
     internal energy E=F+TS    =     -42.77047595 Ry

     The total energy is F=E-TS. E is the sum of the following terms:
     one-electron contribution =   -1327.24367655 Ry
     hartree contribution      =     669.48771939 Ry
     xc contribution           =     -31.67942339 Ry
     ewald contribution        =     646.66490459 Ry

     convergence has been achieved in  59 iterations

     negative rho (up, down):  1.800E-01 0.000E+00

     Forces acting on atoms (cartesian axes, Ry/au):

     atom    1 type  1   force =     0.00000000    0.00000000  -29.33289995
     atom    2 type  1   force =     0.00000000    0.00000000   -3.18334834
     atom    3 type  1   force =     0.00000000   -0.00000000    0.00019177
     atom    4 type  1   force =     0.00000000    0.00000000    0.00117747
     atom    5 type  1   force =     0.00000000    0.00000000   29.33281419
     atom    6 type  1   force =     0.00000000    0.00000000    3.18206487

     Total force =    41.726398     Total SCF correction =     0.000117


     Computing stress (Cartesian axis) and pressure


     negative rho (up, down):  1.800E-01 0.000E+00
          total   stress  (Ry/bohr**3)                   (kbar)     P=     3851.91
  -0.00508580   0.00000000   0.00000000         -748.15        0.00        0.00
   0.00000000  -0.00508580   0.00000000            0.00     -748.15        0.00
   0.00000000  -0.00000000   0.08872592            0.00       -0.00    13052.03


     Writing all to output data dir /run/media/rfa/SATA/Skripsi/DFT/Graphene-copy/tmp/gr-ab-3L.save/ :
     XML data file, charge density, pseudopotentials, collected wavefunctions

     init_run     :      0.13s CPU      0.13s WALL (       1 calls)
     electrons    :     17.26s CPU      9.80s WALL (       1 calls)
     forces       :      0.02s CPU      0.01s WALL (       1 calls)
     stress       :      0.08s CPU      0.04s WALL (       1 calls)

     Called by init_run:
     wfcinit      :      0.08s CPU      0.05s WALL (       1 calls)
     potinit      :      0.00s CPU      0.00s WALL (       1 calls)
     hinit0       :      0.04s CPU      0.07s WALL (       1 calls)

     Called by electrons:
     c_bands      :     15.42s CPU      8.75s WALL (      59 calls)
     sum_band     :      1.50s CPU      0.86s WALL (      59 calls)
     v_of_rho     :      0.15s CPU      0.08s WALL (      60 calls)
     newd         :      0.09s CPU      0.05s WALL (      60 calls)
     mix_rho      :      0.06s CPU      0.03s WALL (      59 calls)

     Called by c_bands:
     init_us_2    :      0.22s CPU      0.12s WALL (    2299 calls)
     cegterg      :     14.68s CPU      8.23s WALL (    1121 calls)

     Called by *egterg:
     cdiaghg      :      5.18s CPU      2.69s WALL (    8409 calls)
     h_psi        :      7.57s CPU      4.41s WALL (    8428 calls)
     s_psi        :      0.24s CPU      0.14s WALL (    8428 calls)
     g_psi        :      0.09s CPU      0.05s WALL (    7288 calls)

     Called by h_psi:
     h_psi:calbec :      0.77s CPU      0.44s WALL (    8428 calls)
     vloc_psi     :      6.31s CPU      3.67s WALL (    8428 calls)
     add_vuspsi   :      0.31s CPU      0.17s WALL (    8428 calls)

     General routines
     calbec       :      0.90s CPU      0.50s WALL (    9872 calls)
     fft          :      0.08s CPU      0.09s WALL (     685 calls)
     ffts         :      0.01s CPU      0.00s WALL (      59 calls)
     fftw         :      6.11s CPU      3.49s WALL (  128122 calls)

     Parallel routines

     PWSCF        :     17.56s CPU     10.14s WALL


   This run was terminated on:  15: 8:39  16Apr2025            

=------------------------------------------------------------------------------=
   JOB DONE.
=------------------------------------------------------------------------------=
