
     Program PWSCF v.7.4.1 starts on 16Apr2025 at 15: 9:12 

     This program is part of the open-source Quantum ESPRESSO suite
     for quantum simulation of materials; please cite
         "P. Giannozzi et al., J. Phys.:Condens. Matter 21 395502 (2009);
         "P. Giannozzi et al., J. Phys.:Condens. Matter 29 465901 (2017);
         "P. Giannozzi et al., J. Chem. Phys. 152 154105 (2020);
          URL http://www.quantum-espresso.org", 
     in publications or presentations arising from this work. More details at
     http://www.quantum-espresso.org/quote

     Parallel version (MPI), running on     7 processors

     MPI processes distributed on     1 nodes
     14930 MiB available memory on the printing compute node when the environment starts

     Waiting for input...
     Reading input from standard input

     Current dimensions of program PWSCF are:
     Max number of different atomic species (ntypx) = 10
     Max number of k-points (npk) =  40000
     Max angular momentum in pseudopotentials (lmaxx) =  4

     R & G space division:  proc/nbgrp/npool/nimage =       7
     Subspace diagonalization in iterative solution of the eigenvalue problem:
     a serial algorithm will be used


     Parallelization info
     --------------------
     sticks:   dense  smooth     PW     G-vecs:    dense   smooth      PW
     Min          34      34     11                 2594     2594     484
     Max          35      35     13                 2609     2609     493
     Sum         241     241     85                18211    18211    3425

     Using Slab Decomposition



     bravais-lattice index     =            4
     lattice parameter (alat)  =       4.6561  a.u.
     unit-cell volume          =     532.1899 (a.u.)^3
     number of atoms/cell      =            6
     number of atomic types    =            1
     number of electrons       =        24.00
     number of Kohn-Sham states=           16
     kinetic-energy cutoff     =      40.0000  Ry
     charge density cutoff     =     160.0000  Ry
     scf convergence threshold =      1.0E-08
     mixing beta               =       0.7000
     number of iterations used =            8  plain     mixing
     Exchange-correlation= PBE
                           (   1   4   3   4   0   0   0)

     celldm(1)=   4.656107  celldm(2)=   0.000000  celldm(3)=   6.087896
     celldm(4)=   0.000000  celldm(5)=   0.000000  celldm(6)=   0.000000

     crystal axes: (cart. coord. in units of alat)
               a(1) = (   1.000000   0.000000   0.000000 )  
               a(2) = (  -0.500000   0.866025   0.000000 )  
               a(3) = (   0.000000   0.000000   6.087896 )  

     reciprocal axes: (cart. coord. in units 2 pi/alat)
               b(1) = (  1.000000  0.577350 -0.000000 )  
               b(2) = (  0.000000  1.154701  0.000000 )  
               b(3) = (  0.000000 -0.000000  0.164260 )  


     PseudoPot. # 1 for C  read from file:
     /run/media/rfa/SATA/Skripsi/DFT/Graphene-copy/pseudo/C.pbe-n-rrkjus_psl.0.1.UPF
     MD5 check sum: 96a6a315177d77e6c95bf6fd3870f9e3
     Pseudo is Ultrasoft + core correction, Zval =  4.0
     Generated using &quot;atomic&quot; code by A. Dal Corso  v.6.3MaX
     Using radial grid of 1073 points,  4 beta functions with: 
                l(1) =   0
                l(2) =   0
                l(3) =   1
                l(4) =   1
     Q(r) pseudized with 0 coefficients 


     atomic species   valence    mass     pseudopotential
     C                 4.00    12.01070     C ( 1.00)

      6 Sym. Ops. (no inversion) found



   Cartesian axes

     site n.     atom                  positions (alat units)
         1        C      tau(   1) = (   0.0000000   0.5773503   3.0439478  )
         2        C      tau(   2) = (   0.5000000   0.2886751   3.0439478  )
         3        C      tau(   3) = (   0.0000000   0.0000000   3.2468777  )
         4        C      tau(   4) = (   0.0000000   0.5773503   3.2468777  )
         5        C      tau(   5) = (   0.0000000   0.5773503   3.4498075  )
         6        C      tau(   6) = (   0.5000000   0.2886751   3.4498075  )

     number of k points=    19  Marzari-Vanderbilt smearing, width (Ry)=  0.0200
                       cart. coord. in units 2pi/alat
        k(    1) = (   0.0000000   0.0000000   0.0000000), wk =   0.0138889
        k(    2) = (   0.0000000   0.0962250   0.0000000), wk =   0.0833333
        k(    3) = (   0.0000000   0.1924501   0.0000000), wk =   0.0833333
        k(    4) = (   0.0000000   0.2886751   0.0000000), wk =   0.0833333
        k(    5) = (   0.0000000   0.3849002   0.0000000), wk =   0.0833333
        k(    6) = (   0.0000000   0.4811252   0.0000000), wk =   0.0833333
        k(    7) = (   0.0000000  -0.5773503   0.0000000), wk =   0.0416667
        k(    8) = (   0.0833333   0.1443376   0.0000000), wk =   0.0833333
        k(    9) = (   0.0833333   0.2405626   0.0000000), wk =   0.1666667
        k(   10) = (   0.0833333   0.3367877   0.0000000), wk =   0.1666667
        k(   11) = (   0.0833333   0.4330127   0.0000000), wk =   0.1666667
        k(   12) = (   0.0833333   0.5292377   0.0000000), wk =   0.1666667
        k(   13) = (   0.1666667   0.2886751   0.0000000), wk =   0.0833333
        k(   14) = (   0.1666667   0.3849002   0.0000000), wk =   0.1666667
        k(   15) = (   0.1666667   0.4811252   0.0000000), wk =   0.1666667
        k(   16) = (   0.1666667   0.5773503   0.0000000), wk =   0.0833333
        k(   17) = (   0.2500000   0.4330127   0.0000000), wk =   0.0833333
        k(   18) = (   0.2500000   0.5292377   0.0000000), wk =   0.1666667
        k(   19) = (   0.3333333   0.5773503   0.0000000), wk =   0.0277778

     Dense  grid:    18211 G-vectors     FFT dimensions: (  20,  20, 120)

     Estimated max dynamical RAM per process >       6.05 MB

     Estimated total dynamical RAM >      42.34 MB

     Check: negative core charge=   -0.000022

     Initial potential from superposition of free atoms

     starting charge      23.9998, renormalised to      24.0000

     negative rho (up, down):  1.255E-04 0.000E+00
     Starting wfcs are   24 randomized atomic wfcs

     total cpu time spent up to now is        0.8 secs

     per-process dynamical memory:    10.5 Mb

     Self-consistent Calculation

     iteration #  1     ecut=    40.00 Ry     beta= 0.70
     Davidson diagonalization with overlap
     ethr =  1.00E-02,  avg # of iterations =  9.1

     negative rho (up, down):  7.761E-03 0.000E+00

     total cpu time spent up to now is        1.4 secs

     total energy              =     -40.36600727 Ry
     estimated scf accuracy    <      18.42494201 Ry

     iteration #  2     ecut=    40.00 Ry     beta= 0.70
     Davidson diagonalization with overlap
     ethr =  1.00E-02,  avg # of iterations = 12.7

     total cpu time spent up to now is        2.1 secs

     total energy              =     -37.34790018 Ry
     estimated scf accuracy    <      32.92520400 Ry

     iteration #  3     ecut=    40.00 Ry     beta= 0.70
     Davidson diagonalization with overlap
     c_bands:  1 eigenvalues not converged
     ethr =  1.00E-02,  avg # of iterations = 10.3

     total cpu time spent up to now is        2.7 secs

     total energy              =     -48.00175277 Ry
     estimated scf accuracy    <       1.88027326 Ry

     iteration #  4     ecut=    40.00 Ry     beta= 0.70
     Davidson diagonalization with overlap
     ethr =  7.83E-03,  avg # of iterations =  2.5

     negative rho (up, down):  1.389E-07 0.000E+00

     total cpu time spent up to now is        2.9 secs

     total energy              =     -47.85367921 Ry
     estimated scf accuracy    <       0.82657184 Ry

     iteration #  5     ecut=    40.00 Ry     beta= 0.70
     Davidson diagonalization with overlap
     ethr =  3.44E-03,  avg # of iterations =  2.8

     negative rho (up, down):  1.973E-05 0.000E+00

     total cpu time spent up to now is        3.2 secs

     total energy              =     -47.79282540 Ry
     estimated scf accuracy    <       0.34154231 Ry

     iteration #  6     ecut=    40.00 Ry     beta= 0.70
     Davidson diagonalization with overlap
     ethr =  1.42E-03,  avg # of iterations =  4.9

     negative rho (up, down):  2.883E-05 0.000E+00

     total cpu time spent up to now is        3.7 secs

     total energy              =     -47.84993937 Ry
     estimated scf accuracy    <       0.12694790 Ry

     iteration #  7     ecut=    40.00 Ry     beta= 0.70
     Davidson diagonalization with overlap
     ethr =  5.29E-04,  avg # of iterations =  5.9

     negative rho (up, down):  2.760E-05 0.000E+00

     total cpu time spent up to now is        4.0 secs

     total energy              =     -47.88428164 Ry
     estimated scf accuracy    <       0.08492813 Ry

     iteration #  8     ecut=    40.00 Ry     beta= 0.70
     Davidson diagonalization with overlap
     ethr =  3.54E-04,  avg # of iterations =  2.1

     negative rho (up, down):  1.752E-04 0.000E+00

     total cpu time spent up to now is        4.3 secs

     total energy              =     -47.85058519 Ry
     estimated scf accuracy    <       0.08963095 Ry

     iteration #  9     ecut=    40.00 Ry     beta= 0.70
     Davidson diagonalization with overlap
     ethr =  3.54E-04,  avg # of iterations =  8.5

     negative rho (up, down):  6.956E-04 0.000E+00

     total cpu time spent up to now is        4.6 secs

     total energy              =     -47.87132501 Ry
     estimated scf accuracy    <       0.05382178 Ry

     iteration # 10     ecut=    40.00 Ry     beta= 0.70
     Davidson diagonalization with overlap
     ethr =  2.24E-04,  avg # of iterations =  6.5

     negative rho (up, down):  1.766E-03 0.000E+00

     total cpu time spent up to now is        5.0 secs

     total energy              =     -47.86383987 Ry
     estimated scf accuracy    <       0.08230110 Ry

     iteration # 11     ecut=    40.00 Ry     beta= 0.70
     Davidson diagonalization with overlap
     ethr =  2.24E-04,  avg # of iterations =  1.4

     negative rho (up, down):  6.988E-03 0.000E+00

     total cpu time spent up to now is        5.2 secs

     total energy              =     -47.85651514 Ry
     estimated scf accuracy    <       0.05155917 Ry

     iteration # 12     ecut=    40.00 Ry     beta= 0.70
     Davidson diagonalization with overlap
     ethr =  2.15E-04,  avg # of iterations =  5.0

     negative rho (up, down):  7.160E-03 0.000E+00

     total cpu time spent up to now is        5.4 secs

     total energy              =     -47.85465082 Ry
     estimated scf accuracy    <       0.03014014 Ry

     iteration # 13     ecut=    40.00 Ry     beta= 0.70
     Davidson diagonalization with overlap
     ethr =  1.26E-04,  avg # of iterations =  2.4

     negative rho (up, down):  7.176E-03 0.000E+00

     total cpu time spent up to now is        5.6 secs

     total energy              =     -47.85749842 Ry
     estimated scf accuracy    <       0.02161872 Ry

     iteration # 14     ecut=    40.00 Ry     beta= 0.70
     Davidson diagonalization with overlap
     ethr =  9.01E-05,  avg # of iterations =  1.6

     negative rho (up, down):  7.464E-03 0.000E+00

     total cpu time spent up to now is        5.9 secs

     total energy              =     -47.85073955 Ry
     estimated scf accuracy    <       0.02695372 Ry

     iteration # 15     ecut=    40.00 Ry     beta= 0.70
     Davidson diagonalization with overlap
     ethr =  9.01E-05,  avg # of iterations =  1.4

     negative rho (up, down):  8.145E-03 0.000E+00

     total cpu time spent up to now is        6.1 secs

     total energy              =     -47.84700932 Ry
     estimated scf accuracy    <       0.01149889 Ry

     iteration # 16     ecut=    40.00 Ry     beta= 0.70
     Davidson diagonalization with overlap
     ethr =  4.79E-05,  avg # of iterations =  5.5

     negative rho (up, down):  8.738E-03 0.000E+00

     total cpu time spent up to now is        6.4 secs

     total energy              =     -47.84801478 Ry
     estimated scf accuracy    <       0.00147579 Ry

     iteration # 17     ecut=    40.00 Ry     beta= 0.70
     Davidson diagonalization with overlap
     c_bands:  2 eigenvalues not converged
     c_bands:  2 eigenvalues not converged
     ethr =  6.15E-06,  avg # of iterations = 13.5

     negative rho (up, down):  8.574E-03 0.000E+00

     total cpu time spent up to now is        7.1 secs

     total energy              =     -47.85084490 Ry
     estimated scf accuracy    <       0.00146101 Ry

     iteration # 18     ecut=    40.00 Ry     beta= 0.70
     Davidson diagonalization with overlap
     ethr =  6.09E-06,  avg # of iterations =  3.3

     negative rho (up, down):  8.462E-03 0.000E+00

     total cpu time spent up to now is        7.3 secs

     total energy              =     -47.85107899 Ry
     estimated scf accuracy    <       0.00226016 Ry

     iteration # 19     ecut=    40.00 Ry     beta= 0.70
     Davidson diagonalization with overlap
     ethr =  6.09E-06,  avg # of iterations =  1.2

     negative rho (up, down):  8.616E-03 0.000E+00

     total cpu time spent up to now is        7.5 secs

     total energy              =     -47.85175068 Ry
     estimated scf accuracy    <       0.00256616 Ry

     iteration # 20     ecut=    40.00 Ry     beta= 0.70
     Davidson diagonalization with overlap
     ethr =  6.09E-06,  avg # of iterations =  1.9

     negative rho (up, down):  8.556E-03 0.000E+00

     total cpu time spent up to now is        7.8 secs

     total energy              =     -47.85188925 Ry
     estimated scf accuracy    <       0.00414138 Ry

     iteration # 21     ecut=    40.00 Ry     beta= 0.70
     Davidson diagonalization with overlap
     ethr =  6.09E-06,  avg # of iterations =  1.0

     negative rho (up, down):  8.853E-03 0.000E+00

     total cpu time spent up to now is        8.0 secs

     total energy              =     -47.85332315 Ry
     estimated scf accuracy    <       0.00438945 Ry

     iteration # 22     ecut=    40.00 Ry     beta= 0.70
     Davidson diagonalization with overlap
     ethr =  6.09E-06,  avg # of iterations =  2.9

     negative rho (up, down):  8.774E-03 0.000E+00

     total cpu time spent up to now is        8.2 secs

     total energy              =     -47.85323837 Ry
     estimated scf accuracy    <       0.00789312 Ry

     iteration # 23     ecut=    40.00 Ry     beta= 0.70
     Davidson diagonalization with overlap
     ethr =  6.09E-06,  avg # of iterations =  1.1

     negative rho (up, down):  8.402E-03 0.000E+00

     total cpu time spent up to now is        8.4 secs

     total energy              =     -47.85133036 Ry
     estimated scf accuracy    <       0.00754561 Ry

     iteration # 24     ecut=    40.00 Ry     beta= 0.70
     Davidson diagonalization with overlap
     ethr =  6.09E-06,  avg # of iterations =  1.3

     negative rho (up, down):  7.985E-03 0.000E+00

     total cpu time spent up to now is        8.6 secs

     total energy              =     -47.84868453 Ry
     estimated scf accuracy    <       0.00411400 Ry

     iteration # 25     ecut=    40.00 Ry     beta= 0.70
     Davidson diagonalization with overlap
     ethr =  6.09E-06,  avg # of iterations =  6.4

     negative rho (up, down):  8.019E-03 0.000E+00

     total cpu time spent up to now is        9.0 secs

     total energy              =     -47.85000041 Ry
     estimated scf accuracy    <       0.00019505 Ry

     iteration # 26     ecut=    40.00 Ry     beta= 0.70
     Davidson diagonalization with overlap
     ethr =  8.13E-07,  avg # of iterations =  7.0

     negative rho (up, down):  8.076E-03 0.000E+00

     total cpu time spent up to now is        9.5 secs

     total energy              =     -47.85007369 Ry
     estimated scf accuracy    <       0.00018085 Ry

     iteration # 27     ecut=    40.00 Ry     beta= 0.70
     Davidson diagonalization with overlap
     ethr =  7.54E-07,  avg # of iterations =  2.6

     negative rho (up, down):  8.084E-03 0.000E+00

     total cpu time spent up to now is        9.7 secs

     total energy              =     -47.85009681 Ry
     estimated scf accuracy    <       0.00001060 Ry

     iteration # 28     ecut=    40.00 Ry     beta= 0.70
     Davidson diagonalization with overlap
     ethr =  4.41E-08,  avg # of iterations =  8.3

     negative rho (up, down):  8.087E-03 0.000E+00

     total cpu time spent up to now is       10.2 secs

     total energy              =     -47.85012012 Ry
     estimated scf accuracy    <       0.00000542 Ry

     iteration # 29     ecut=    40.00 Ry     beta= 0.70
     Davidson diagonalization with overlap
     ethr =  2.26E-08,  avg # of iterations =  2.4

     negative rho (up, down):  8.088E-03 0.000E+00

     total cpu time spent up to now is       10.5 secs

     total energy              =     -47.85011897 Ry
     estimated scf accuracy    <       0.00000235 Ry

     iteration # 30     ecut=    40.00 Ry     beta= 0.70
     Davidson diagonalization with overlap
     ethr =  9.77E-09,  avg # of iterations =  5.2

     negative rho (up, down):  8.090E-03 0.000E+00

     total cpu time spent up to now is       10.8 secs

     total energy              =     -47.85012016 Ry
     estimated scf accuracy    <       0.00000025 Ry

     iteration # 31     ecut=    40.00 Ry     beta= 0.70
     Davidson diagonalization with overlap
     ethr =  1.05E-09,  avg # of iterations =  6.3

     negative rho (up, down):  8.090E-03 0.000E+00

     total cpu time spent up to now is       11.2 secs

     total energy              =     -47.85012036 Ry
     estimated scf accuracy    <       0.00000014 Ry

     iteration # 32     ecut=    40.00 Ry     beta= 0.70
     Davidson diagonalization with overlap
     ethr =  5.84E-10,  avg # of iterations =  2.0

     negative rho (up, down):  8.091E-03 0.000E+00

     total cpu time spent up to now is       11.4 secs

     total energy              =     -47.85012032 Ry
     estimated scf accuracy    <       0.00000009 Ry

     iteration # 33     ecut=    40.00 Ry     beta= 0.70
     Davidson diagonalization with overlap
     ethr =  3.80E-10,  avg # of iterations =  3.5

     negative rho (up, down):  8.091E-03 0.000E+00

     total cpu time spent up to now is       11.7 secs

     End of self-consistent calculation

          k = 0.0000 0.0000 0.0000 (  2289 PWs)   bands (ev):

   -33.5343 -27.7946 -27.7946 -20.9296 -13.8379 -13.8379 -11.3940  -5.1654
    -2.1672  -2.1339  -2.1339   3.2976   4.8542   5.7863   5.9945   7.8058

          k = 0.0000 0.0962 0.0000 (  2286 PWs)   bands (ev):

   -33.6536 -28.0414 -27.7237 -20.8207 -13.9128 -13.2418 -10.9129  -5.6607
    -2.4864  -2.2827  -2.0121   2.9497   5.0675   5.8030   6.1762   7.7767

          k = 0.0000 0.1925 0.0000 (  2280 PWs)   bands (ev):

   -33.9586 -28.6479 -27.5546 -20.3831 -13.8305 -11.6038  -9.8038  -6.9405
    -3.3043  -2.6067  -1.6789   2.6348   5.6951   6.3169   6.6784   7.7401

          k = 0.0000 0.2887 0.0000 (  2278 PWs)   bands (ev):

   -34.3373 -29.3590 -27.3808 -19.6523 -13.2976  -9.2402  -8.8272  -8.4471
    -4.2031  -2.8833  -1.6421   2.8064   4.9906   6.8120   7.3586   7.5378

          k = 0.0000 0.3849 0.0000 (  2272 PWs)   bands (ev):

   -34.6818 -29.9748 -27.2595 -18.6264 -12.3063 -10.8663  -7.0312  -6.4925
    -4.9468  -3.0257  -2.3583   2.2060   3.2541   8.3674   8.8141   8.8788

          k = 0.0000 0.4811 0.0000 (  2282 PWs)   bands (ev):

   -34.9174 -30.3807 -27.1961 -17.4637 -12.7174 -11.1125  -5.8196  -5.4247
    -3.8687  -3.4738  -3.0955   0.0310   3.6808   7.6697  10.3559  10.4809

          k = 0.0000-0.5774 0.0000 (  2260 PWs)   bands (ev):

   -35.0004 -30.5215 -27.1774 -16.7148 -13.6673 -10.4642  -5.5882  -5.4947
    -3.7808  -3.0926  -2.5793  -0.9756   3.8551   6.4556  11.3490  11.4394

          k = 0.0833 0.1443 0.0000 (  2291 PWs)   bands (ev):

   -33.8626 -28.5206 -27.5455 -20.5376 -13.9348 -12.0834 -10.1435  -6.4924
    -3.3559  -2.2823  -1.7640   2.7311   5.4891   6.1211   6.5210   7.7672

          k = 0.0833 0.2406 0.0000 (  2281 PWs)   bands (ev):

   -34.1870 -29.2799 -27.2498 -19.9155 -13.6851 -10.0020  -8.9664  -7.9280
    -4.6211  -2.2382  -1.5687   2.9038   5.9889   6.4426   6.9315   7.1643

          k = 0.0833 0.3368 0.0000 (  2266 PWs)   bands (ev):

   -34.5172 -30.0415 -26.9751 -19.0512 -12.9891  -9.8452  -7.6802  -7.3210
    -5.6568  -2.2368  -1.9368   3.2258   3.3702   7.5926   8.1651   8.1960

          k = 0.0833 0.4330 0.0000 (  2279 PWs)   bands (ev):

   -34.7745 -30.6277 -26.7852 -17.9461 -11.9284 -11.7881  -6.3427  -6.3347
    -4.7031  -2.8370  -2.2386   0.8642   3.8886   8.3934   9.6297   9.7966

          k = 0.0833 0.5292 0.0000 (  2273 PWs)   bands (ev):

   -34.9124 -30.9423 -26.6940 -16.8823 -13.3188 -10.9423  -6.6710  -5.5717
    -4.1321  -2.2412  -2.1776  -0.4932   4.2235   6.7722  11.1493  11.2634

          k = 0.1667 0.2887 0.0000 (  2273 PWs)   bands (ev):

   -34.4323 -30.1932 -26.7178 -19.2282 -13.3640  -9.2849  -7.8801  -7.5472
    -6.3346  -1.7908  -1.7905   3.5914   3.6720   7.3050   7.9203   7.9806

          k = 0.1667 0.3849 0.0000 (  2279 PWs)   bands (ev):

   -34.6128 -31.0455 -26.2147 -18.2119 -12.7105 -10.8540  -7.5973  -6.6823
    -4.9597  -2.3841  -1.4521   1.3395   4.5867   8.1979   9.2300   9.4327

          k = 0.1667 0.4811 0.0000 (  2273 PWs)   bands (ev):

   -34.7038 -31.6414 -25.8767 -17.0994 -12.4956 -11.8571  -8.2777  -5.6331
    -4.5388  -1.6810  -1.2695   0.2869   5.2629   7.5869  10.7610  10.8549

          k = 0.1667 0.5774 0.0000 (  2254 PWs)   bands (ev):

   -34.7273 -31.8566 -25.7605 -16.4671 -13.3742 -11.3883  -8.4937  -5.5711
    -4.5004  -1.8888  -1.2224   1.2326   5.5016   6.4503  11.1177  11.3985

          k = 0.2500 0.4330 0.0000 (  2269 PWs)   bands (ev):

   -34.5751 -31.9677 -25.5034 -17.1972 -12.3012 -11.9149  -9.1376  -5.6366
    -4.6973  -1.4793  -0.9403   0.5932   6.0681   8.1065  10.3465  10.6497

          k = 0.2500 0.5292 0.0000 (  2253 PWs)   bands (ev):

   -34.4630 -32.5572 -25.0844 -16.2314 -12.9185 -11.8939  -9.9021  -5.5844
    -4.7103  -2.0017  -0.6858   3.0071   7.1212   7.1237  10.4390  10.6723

          k = 0.3333 0.5774 0.0000 (  2259 PWs)   bands (ev):

   -34.2611 -32.9986 -24.7701 -15.7950 -13.0495 -11.9203 -10.6024  -5.9159
    -4.3707  -2.4058  -0.4970   5.6294   6.9196   8.4050   8.4840   9.8208

     the Fermi energy is     3.3537 ev

!    total energy              =     -47.85012034 Ry
     estimated scf accuracy    <          3.3E-09 Ry
     smearing contrib. (-TS)   =       0.00034845 Ry
     internal energy E=F+TS    =     -47.85046879 Ry

     The total energy is F=E-TS. E is the sum of the following terms:
     one-electron contribution =   -1338.67142096 Ry
     hartree contribution      =     676.52985612 Ry
     xc contribution           =     -32.37380859 Ry
     ewald contribution        =     646.66490465 Ry

     convergence has been achieved in  33 iterations

     negative rho (up, down):  8.091E-03 0.000E+00

     Forces acting on atoms (cartesian axes, Ry/au):

     atom    1 type  1   force =     0.00000000    0.00000000  -23.71420245
     atom    2 type  1   force =     0.00000000   -0.00000000   -2.75250330
     atom    3 type  1   force =     0.00000000    0.00000000   -0.00000690
     atom    4 type  1   force =     0.00000000    0.00000000   -0.00001673
     atom    5 type  1   force =     0.00000000   -0.00000000   23.71423295
     atom    6 type  1   force =     0.00000000    0.00000000    2.75249645

     Total force =    33.762120     Total SCF correction =     0.000083


     Computing stress (Cartesian axis) and pressure


     negative rho (up, down):  8.091E-03 0.000E+00
          total   stress  (Ry/bohr**3)                   (kbar)     P=     5848.35
   0.01587720   0.00000000   0.00000000         2335.62        0.00        0.00
   0.00000000   0.01587720  -0.00000000            0.00     2335.62       -0.00
   0.00000000  -0.00000000   0.08751442            0.00       -0.00    12873.82


     Writing all to output data dir /run/media/rfa/SATA/Skripsi/DFT/Graphene-copy/tmp/gr-ab-3L.save/ :
     XML data file, charge density, pseudopotentials, collected wavefunctions

     init_run     :      0.53s CPU      0.73s WALL (       1 calls)
     electrons    :     20.29s CPU     10.91s WALL (       1 calls)
     forces       :      0.06s CPU      0.03s WALL (       1 calls)
     stress       :      0.16s CPU      0.09s WALL (       1 calls)

     Called by init_run:
     wfcinit      :      0.18s CPU      0.10s WALL (       1 calls)
     potinit      :      0.01s CPU      0.01s WALL (       1 calls)
     hinit0       :      0.32s CPU      0.60s WALL (       1 calls)

     Called by electrons:
     c_bands      :     17.71s CPU      9.47s WALL (      33 calls)
     sum_band     :      2.05s CPU      1.10s WALL (      33 calls)
     v_of_rho     :      0.26s CPU      0.14s WALL (      34 calls)
     newd         :      0.14s CPU      0.12s WALL (      34 calls)
     mix_rho      :      0.09s CPU      0.05s WALL (      33 calls)

     Called by c_bands:
     init_us_2    :      0.40s CPU      0.21s WALL (    1311 calls)
     cegterg      :     16.81s CPU      8.94s WALL (     627 calls)

     Called by *egterg:
     cdiaghg      :      2.58s CPU      1.33s WALL (    3521 calls)
     h_psi        :     11.23s CPU      6.00s WALL (    3540 calls)
     s_psi        :      0.39s CPU      0.20s WALL (    3540 calls)
     g_psi        :      0.12s CPU      0.07s WALL (    2894 calls)

     Called by h_psi:
     h_psi:calbec :      1.47s CPU      0.80s WALL (    3540 calls)
     vloc_psi     :      8.73s CPU      4.65s WALL (    3540 calls)
     add_vuspsi   :      0.83s CPU      0.43s WALL (    3540 calls)

     General routines
     calbec       :      1.73s CPU      0.93s WALL (    4490 calls)
     fft          :      0.38s CPU      0.63s WALL (     399 calls)
     ffts         :      0.01s CPU      0.00s WALL (      33 calls)
     fftw         :      8.06s CPU      4.27s WALL (   73558 calls)

     Parallel routines

     PWSCF        :     21.11s CPU     12.02s WALL


   This run was terminated on:  15: 9:24  16Apr2025            

=------------------------------------------------------------------------------=
   JOB DONE.
=------------------------------------------------------------------------------=
