
     Program PWSCF v.7.4.1 starts on 16Apr2025 at 15: 9:36 

     This program is part of the open-source Quantum ESPRESSO suite
     for quantum simulation of materials; please cite
         "P. Giannozzi et al., J. Phys.:Condens. Matter 21 395502 (2009);
         "P. Giannozzi et al., J. Phys.:Condens. Matter 29 465901 (2017);
         "P. Giannozzi et al., J. Chem. Phys. 152 154105 (2020);
          URL http://www.quantum-espresso.org", 
     in publications or presentations arising from this work. More details at
     http://www.quantum-espresso.org/quote

     Parallel version (MPI), running on     7 processors

     MPI processes distributed on     1 nodes
     14812 MiB available memory on the printing compute node when the environment starts

     Waiting for input...
     Reading input from standard input

     Current dimensions of program PWSCF are:
     Max number of different atomic species (ntypx) = 10
     Max number of k-points (npk) =  40000
     Max angular momentum in pseudopotentials (lmaxx) =  4

     R & G space division:  proc/nbgrp/npool/nimage =       7
     Subspace diagonalization in iterative solution of the eigenvalue problem:
     a serial algorithm will be used


     Parallelization info
     --------------------
     sticks:   dense  smooth     PW     G-vecs:    dense   smooth      PW
     Min          43      43     13                 3639     3639     639
     Max          43      43     13                 3649     3649     655
     Sum         301     301     91                25507    25507    4493

     Using Slab Decomposition



     bravais-lattice index     =            4
     lattice parameter (alat)  =       4.6561  a.u.
     unit-cell volume          =     532.1899 (a.u.)^3
     number of atoms/cell      =            6
     number of atomic types    =            1
     number of electrons       =        24.00
     number of Kohn-Sham states=           16
     kinetic-energy cutoff     =      50.0000  Ry
     charge density cutoff     =     200.0000  Ry
     scf convergence threshold =      1.0E-08
     mixing beta               =       0.7000
     number of iterations used =            8  plain     mixing
     Exchange-correlation= PBE
                           (   1   4   3   4   0   0   0)

     celldm(1)=   4.656107  celldm(2)=   0.000000  celldm(3)=   6.087896
     celldm(4)=   0.000000  celldm(5)=   0.000000  celldm(6)=   0.000000

     crystal axes: (cart. coord. in units of alat)
               a(1) = (   1.000000   0.000000   0.000000 )  
               a(2) = (  -0.500000   0.866025   0.000000 )  
               a(3) = (   0.000000   0.000000   6.087896 )  

     reciprocal axes: (cart. coord. in units 2 pi/alat)
               b(1) = (  1.000000  0.577350 -0.000000 )  
               b(2) = (  0.000000  1.154701  0.000000 )  
               b(3) = (  0.000000 -0.000000  0.164260 )  


     PseudoPot. # 1 for C  read from file:
     /run/media/rfa/SATA/Skripsi/DFT/Graphene-copy/pseudo/C.pbe-n-rrkjus_psl.0.1.UPF
     MD5 check sum: 96a6a315177d77e6c95bf6fd3870f9e3
     Pseudo is Ultrasoft + core correction, Zval =  4.0
     Generated using &quot;atomic&quot; code by A. Dal Corso  v.6.3MaX
     Using radial grid of 1073 points,  4 beta functions with: 
                l(1) =   0
                l(2) =   0
                l(3) =   1
                l(4) =   1
     Q(r) pseudized with 0 coefficients 


     atomic species   valence    mass     pseudopotential
     C                 4.00    12.01070     C ( 1.00)

      6 Sym. Ops. (no inversion) found



   Cartesian axes

     site n.     atom                  positions (alat units)
         1        C      tau(   1) = (   0.0000000   0.5773503   3.0439478  )
         2        C      tau(   2) = (   0.5000000   0.2886751   3.0439478  )
         3        C      tau(   3) = (   0.0000000   0.0000000   3.2468777  )
         4        C      tau(   4) = (   0.0000000   0.5773503   3.2468777  )
         5        C      tau(   5) = (   0.0000000   0.5773503   3.4498075  )
         6        C      tau(   6) = (   0.5000000   0.2886751   3.4498075  )

     number of k points=    19  Marzari-Vanderbilt smearing, width (Ry)=  0.0200
                       cart. coord. in units 2pi/alat
        k(    1) = (   0.0000000   0.0000000   0.0000000), wk =   0.0138889
        k(    2) = (   0.0000000   0.0962250   0.0000000), wk =   0.0833333
        k(    3) = (   0.0000000   0.1924501   0.0000000), wk =   0.0833333
        k(    4) = (   0.0000000   0.2886751   0.0000000), wk =   0.0833333
        k(    5) = (   0.0000000   0.3849002   0.0000000), wk =   0.0833333
        k(    6) = (   0.0000000   0.4811252   0.0000000), wk =   0.0833333
        k(    7) = (   0.0000000  -0.5773503   0.0000000), wk =   0.0416667
        k(    8) = (   0.0833333   0.1443376   0.0000000), wk =   0.0833333
        k(    9) = (   0.0833333   0.2405626   0.0000000), wk =   0.1666667
        k(   10) = (   0.0833333   0.3367877   0.0000000), wk =   0.1666667
        k(   11) = (   0.0833333   0.4330127   0.0000000), wk =   0.1666667
        k(   12) = (   0.0833333   0.5292377   0.0000000), wk =   0.1666667
        k(   13) = (   0.1666667   0.2886751   0.0000000), wk =   0.0833333
        k(   14) = (   0.1666667   0.3849002   0.0000000), wk =   0.1666667
        k(   15) = (   0.1666667   0.4811252   0.0000000), wk =   0.1666667
        k(   16) = (   0.1666667   0.5773503   0.0000000), wk =   0.0833333
        k(   17) = (   0.2500000   0.4330127   0.0000000), wk =   0.0833333
        k(   18) = (   0.2500000   0.5292377   0.0000000), wk =   0.1666667
        k(   19) = (   0.3333333   0.5773503   0.0000000), wk =   0.0277778

     Dense  grid:    25507 G-vectors     FFT dimensions: (  24,  24, 128)

     Estimated max dynamical RAM per process >       8.45 MB

     Estimated total dynamical RAM >      59.17 MB

     Check: negative core charge=   -0.000007

     Initial potential from superposition of free atoms

     starting charge      23.9998, renormalised to      24.0000

     negative rho (up, down):  4.487E-04 0.000E+00
     Starting wfcs are   24 randomized atomic wfcs

     total cpu time spent up to now is        0.7 secs

     per-process dynamical memory:    11.9 Mb

     Self-consistent Calculation

     iteration #  1     ecut=    50.00 Ry     beta= 0.70
     Davidson diagonalization with overlap
     ethr =  1.00E-02,  avg # of iterations =  9.4

     negative rho (up, down):  2.867E-03 0.000E+00

     total cpu time spent up to now is        1.7 secs

     total energy              =     -40.36577633 Ry
     estimated scf accuracy    <      18.97753411 Ry

     iteration #  2     ecut=    50.00 Ry     beta= 0.70
     Davidson diagonalization with overlap
     ethr =  1.00E-02,  avg # of iterations = 11.7

     total cpu time spent up to now is        2.8 secs

     total energy              =     -39.83648869 Ry
     estimated scf accuracy    <      26.44723884 Ry

     iteration #  3     ecut=    50.00 Ry     beta= 0.70
     Davidson diagonalization with overlap
     ethr =  1.00E-02,  avg # of iterations =  9.6

     total cpu time spent up to now is        3.7 secs

     total energy              =     -48.14308783 Ry
     estimated scf accuracy    <       1.44935647 Ry

     iteration #  4     ecut=    50.00 Ry     beta= 0.70
     Davidson diagonalization with overlap
     ethr =  6.04E-03,  avg # of iterations =  3.4

     total cpu time spent up to now is        4.1 secs

     total energy              =     -48.05885254 Ry
     estimated scf accuracy    <       0.63703718 Ry

     iteration #  5     ecut=    50.00 Ry     beta= 0.70
     Davidson diagonalization with overlap
     ethr =  2.65E-03,  avg # of iterations =  2.7

     total cpu time spent up to now is        4.5 secs

     total energy              =     -48.08546900 Ry
     estimated scf accuracy    <       0.29692408 Ry

     iteration #  6     ecut=    50.00 Ry     beta= 0.70
     Davidson diagonalization with overlap
     ethr =  1.24E-03,  avg # of iterations =  4.0

     negative rho (up, down):  5.305E-06 0.000E+00

     total cpu time spent up to now is        5.0 secs

     total energy              =     -48.11098900 Ry
     estimated scf accuracy    <       0.15519953 Ry

     iteration #  7     ecut=    50.00 Ry     beta= 0.70
     Davidson diagonalization with overlap
     ethr =  6.47E-04,  avg # of iterations =  5.5

     negative rho (up, down):  2.937E-04 0.000E+00

     total cpu time spent up to now is        5.5 secs

     total energy              =     -48.11536640 Ry
     estimated scf accuracy    <       0.05496791 Ry

     iteration #  8     ecut=    50.00 Ry     beta= 0.70
     Davidson diagonalization with overlap
     ethr =  2.29E-04,  avg # of iterations = 10.1

     negative rho (up, down):  4.820E-04 0.000E+00

     total cpu time spent up to now is        6.3 secs

     total energy              =     -48.13487424 Ry
     estimated scf accuracy    <       0.00509228 Ry

     iteration #  9     ecut=    50.00 Ry     beta= 0.70
     Davidson diagonalization with overlap
     c_bands:  2 eigenvalues not converged
     c_bands:  3 eigenvalues not converged
     c_bands:  1 eigenvalues not converged
     c_bands:  2 eigenvalues not converged
     c_bands:  1 eigenvalues not converged
     c_bands:  1 eigenvalues not converged
     c_bands:  1 eigenvalues not converged
     c_bands:  2 eigenvalues not converged
     c_bands:  2 eigenvalues not converged
     c_bands:  1 eigenvalues not converged
     c_bands:  1 eigenvalues not converged
     c_bands:  1 eigenvalues not converged
     ethr =  2.12E-05,  avg # of iterations = 18.4

     negative rho (up, down):  1.043E-03 0.000E+00

     total cpu time spent up to now is        7.8 secs

     total energy              =     -48.14695725 Ry
     estimated scf accuracy    <       0.00534291 Ry

     iteration # 10     ecut=    50.00 Ry     beta= 0.70
     Davidson diagonalization with overlap
     ethr =  2.12E-05,  avg # of iterations =  6.1

     negative rho (up, down):  1.537E-03 0.000E+00

     total cpu time spent up to now is        8.3 secs

     total energy              =     -48.14596307 Ry
     estimated scf accuracy    <       0.00291249 Ry

     iteration # 11     ecut=    50.00 Ry     beta= 0.70
     Davidson diagonalization with overlap
     ethr =  1.21E-05,  avg # of iterations =  4.6

     negative rho (up, down):  1.919E-03 0.000E+00

     total cpu time spent up to now is        8.8 secs

     total energy              =     -48.14632208 Ry
     estimated scf accuracy    <       0.00022249 Ry

     iteration # 12     ecut=    50.00 Ry     beta= 0.70
     Davidson diagonalization with overlap
     c_bands:  1 eigenvalues not converged
     c_bands:  1 eigenvalues not converged
     c_bands:  2 eigenvalues not converged
     ethr =  9.27E-07,  avg # of iterations = 15.0

     negative rho (up, down):  1.841E-03 0.000E+00

     total cpu time spent up to now is       10.1 secs

     total energy              =     -48.14680168 Ry
     estimated scf accuracy    <       0.00014202 Ry

     iteration # 13     ecut=    50.00 Ry     beta= 0.70
     Davidson diagonalization with overlap
     ethr =  5.92E-07,  avg # of iterations =  2.5

     negative rho (up, down):  1.813E-03 0.000E+00

     total cpu time spent up to now is       10.6 secs

     total energy              =     -48.14680350 Ry
     estimated scf accuracy    <       0.00005617 Ry

     iteration # 14     ecut=    50.00 Ry     beta= 0.70
     Davidson diagonalization with overlap
     ethr =  2.34E-07,  avg # of iterations =  3.5

     negative rho (up, down):  1.801E-03 0.000E+00

     total cpu time spent up to now is       11.0 secs

     total energy              =     -48.14680445 Ry
     estimated scf accuracy    <       0.00001880 Ry

     iteration # 15     ecut=    50.00 Ry     beta= 0.70
     Davidson diagonalization with overlap
     ethr =  7.83E-08,  avg # of iterations =  5.7

     negative rho (up, down):  1.793E-03 0.000E+00

     total cpu time spent up to now is       11.6 secs

     total energy              =     -48.14681893 Ry
     estimated scf accuracy    <       0.00000147 Ry

     iteration # 16     ecut=    50.00 Ry     beta= 0.70
     Davidson diagonalization with overlap
     ethr =  6.12E-09,  avg # of iterations =  9.5

     negative rho (up, down):  1.789E-03 0.000E+00

     total cpu time spent up to now is       12.7 secs

     total energy              =     -48.14682261 Ry
     estimated scf accuracy    <       0.00000238 Ry

     iteration # 17     ecut=    50.00 Ry     beta= 0.70
     Davidson diagonalization with overlap
     ethr =  6.12E-09,  avg # of iterations =  1.3

     negative rho (up, down):  1.794E-03 0.000E+00

     total cpu time spent up to now is       13.0 secs

     total energy              =     -48.14682160 Ry
     estimated scf accuracy    <       0.00000282 Ry

     iteration # 18     ecut=    50.00 Ry     beta= 0.70
     Davidson diagonalization with overlap
     ethr =  6.12E-09,  avg # of iterations =  1.1

     negative rho (up, down):  1.799E-03 0.000E+00

     total cpu time spent up to now is       13.3 secs

     total energy              =     -48.14682132 Ry
     estimated scf accuracy    <       0.00000081 Ry

     iteration # 19     ecut=    50.00 Ry     beta= 0.70
     Davidson diagonalization with overlap
     ethr =  3.38E-09,  avg # of iterations =  4.9

     negative rho (up, down):  1.797E-03 0.000E+00

     total cpu time spent up to now is       13.9 secs

     End of self-consistent calculation

          k = 0.0000 0.0000 0.0000 (  3135 PWs)   bands (ev):

   -33.4000 -27.5356 -27.5356 -21.4114 -13.7148 -13.7148 -11.3120  -5.9628
    -2.0551  -2.0111  -2.0111   3.1939   5.3480   6.2657   6.4964   8.0539

          k = 0.0000 0.0962 0.0000 (  3173 PWs)   bands (ev):

   -33.5128 -27.7868 -27.4764 -21.2688 -13.7886 -13.1149 -10.8277  -6.3418
    -2.3644  -2.1951  -1.8954   2.8837   5.5485   6.2822   6.6716   8.0323

          k = 0.0000 0.1925 0.0000 (  3183 PWs)   bands (ev):

   -33.8033 -28.4017 -27.3348 -20.8276 -13.6989 -11.4676  -9.7145  -7.4707
    -3.1830  -2.6196  -1.5609   2.6271   6.1204   6.7867   7.1382   8.0200

          k = 0.0000 0.2887 0.0000 (  3177 PWs)   bands (ev):

   -34.1655 -29.1202 -27.1931 -20.1182 -13.1565  -9.2112  -9.0905  -8.3541
    -4.0818  -3.0031  -1.5155   2.8498   5.1392   7.1657   7.8151   7.9499

          k = 0.0000 0.3849 0.0000 (  3189 PWs)   bands (ev):

   -34.4985 -29.7419 -27.0979 -19.1738 -12.1579 -11.1338  -6.9383  -6.3282
    -4.8262  -3.2390  -2.2114   2.3388   3.3330   8.6533   9.2382   9.2669

          k = 0.0000 0.4811 0.0000 (  3207 PWs)   bands (ev):

   -34.7272 -30.1518 -27.0513 -18.1531 -12.8321 -10.9623  -5.7347  -5.3047
    -3.6862  -3.3623  -3.2892   0.1372   3.7824   7.8089  10.5810  10.7891

          k = 0.0000-0.5774 0.0000 (  3208 PWs)   bands (ev):

   -34.8079 -30.2938 -27.0384 -17.5837 -13.6300 -10.3179  -5.4685  -5.4089
    -3.5696  -3.3939  -2.3839  -0.8910   3.9644   6.5797  11.5018  11.5809

          k = 0.0833 0.1443 0.0000 (  3191 PWs)   bands (ev):

   -33.7114 -28.2728 -27.3160 -20.9803 -13.8059 -11.9485 -10.0547  -7.0757
    -3.2359  -2.2463  -1.6456   2.7051   5.9372   6.5924   6.9949   8.0543

          k = 0.0833 0.2406 0.0000 (  3176 PWs)   bands (ev):

   -34.0212 -29.0420 -27.0469 -20.3965 -13.5475  -9.8557  -8.8759  -8.4242
    -4.5171  -2.2763  -1.4489   2.9154   6.1647   6.7950   7.3899   7.5914

          k = 0.0833 0.3368 0.0000 (  3174 PWs)   bands (ev):

   -34.3387 -29.8113 -26.7980 -19.5614 -12.8419 -10.1882  -7.5821  -7.1675
    -5.5850  -2.3254  -1.8038   3.3663   3.4231   7.8389   8.6177   8.6356

          k = 0.0833 0.4330 0.0000 (  3188 PWs)   bands (ev):

   -34.5868 -30.4034 -26.6282 -18.5530 -11.9906 -11.7746  -6.2868  -6.2526
    -4.5167  -2.6852  -2.3701   0.9813   3.9691   8.5423  10.0878  10.1712

          k = 0.0833 0.5292 0.0000 (  3187 PWs)   bands (ev):

   -34.7199 -30.7208 -26.5470 -17.6534 -13.3281 -10.7876  -6.6312  -5.4781
    -3.9247  -2.3929  -2.0120  -0.3888   4.3184   6.9045  11.3271  11.4310

          k = 0.1667 0.2887 0.0000 (  3165 PWs)   bands (ev):

   -34.2561 -29.9642 -26.5338 -19.6907 -13.2170  -9.6632  -7.7888  -7.3869
    -6.2169  -1.8179  -1.6639   3.7119   3.7338   7.5357   8.3962   8.4180

          k = 0.1667 0.3849 0.0000 (  3167 PWs)   bands (ev):

   -34.4273 -30.8245 -26.0492 -18.7661 -12.5531 -11.1438  -7.5056  -6.5933
    -4.7677  -2.2542  -1.5012   1.4604   4.6455   8.3503   9.7185   9.8373

          k = 0.1667 0.4811 0.0000 (  3169 PWs)   bands (ev):

   -34.5121 -31.4261 -25.7242 -17.7796 -12.5989 -11.6915  -8.2222  -5.5449
    -4.3318  -1.5449  -1.3228   0.3986   5.3350   7.7363  10.8950  11.0914

          k = 0.1667 0.5774 0.0000 (  3186 PWs)   bands (ev):

   -34.5339 -31.6435 -25.6122 -17.2496 -13.3120 -11.2215  -8.4465  -5.4338
    -4.3405  -1.7728  -1.2656   1.3777   5.5761   6.5829  11.2459  11.5266

          k = 0.2500 0.4330 0.0000 (  3157 PWs)   bands (ev):

   -34.3843 -31.7532 -25.3494 -17.8359 -12.1314 -12.0883  -9.0283  -5.5539
    -4.4872  -1.3484  -0.9566   0.7031   6.1468   8.2660  10.3157  10.9032

          k = 0.2500 0.5292 0.0000 (  3158 PWs)   bands (ev):

   -34.2689 -32.3468 -24.9382 -17.0607 -12.8913 -11.7146  -9.8112  -5.3857
    -4.6240  -1.8858  -0.6937   3.1431   7.2083   7.2706  10.5195  10.7981

          k = 0.3333 0.5774 0.0000 (  3171 PWs)   bands (ev):

   -34.0659 -32.7896 -24.6274 -16.7576 -12.9268 -11.7341 -10.4924  -5.7032
    -4.3087  -2.2852  -0.4973   5.7719   7.0380   8.5705   8.6128   9.9394

     the Fermi energy is     3.4553 ev

!    total energy              =     -48.14682168 Ry
     estimated scf accuracy    <          3.5E-09 Ry
     smearing contrib. (-TS)   =      -0.00021771 Ry
     internal energy E=F+TS    =     -48.14660397 Ry

     The total energy is F=E-TS. E is the sum of the following terms:
     one-electron contribution =   -1339.29515701 Ry
     hartree contribution      =     676.89025916 Ry
     xc contribution           =     -32.40660971 Ry
     ewald contribution        =     646.66490358 Ry

     convergence has been achieved in  19 iterations

     negative rho (up, down):  1.797E-03 0.000E+00

     Forces acting on atoms (cartesian axes, Ry/au):

     atom    1 type  1   force =     0.00000000    0.00000000  -21.96814607
     atom    2 type  1   force =     0.00000000   -0.00000000   -2.74861441
     atom    3 type  1   force =    -0.00000000   -0.00000000    0.00045397
     atom    4 type  1   force =    -0.00000000    0.00000000   -0.00186594
     atom    5 type  1   force =     0.00000000    0.00000000   21.96856713
     atom    6 type  1   force =     0.00000000   -0.00000000    2.74960532

     Total force =    31.310263     Total SCF correction =     0.000238


     Computing stress (Cartesian axis) and pressure


     negative rho (up, down):  1.797E-03 0.000E+00
          total   stress  (Ry/bohr**3)                   (kbar)     P=     5814.40
   0.01642261   0.00000000   0.00000000         2415.85        0.00        0.00
   0.00000000   0.01642261   0.00000000            0.00     2415.85        0.00
   0.00000000   0.00000000   0.08573124            0.00        0.00    12611.50


     Writing all to output data dir /run/media/rfa/SATA/Skripsi/DFT/Graphene-copy/tmp/gr-ab-3L.save/ :
     XML data file, charge density, pseudopotentials, collected wavefunctions

     init_run     :      0.55s CPU      0.62s WALL (       1 calls)
     electrons    :     25.28s CPU     13.24s WALL (       1 calls)
     forces       :      0.09s CPU      0.05s WALL (       1 calls)
     stress       :      0.27s CPU      0.16s WALL (       1 calls)

     Called by init_run:
     wfcinit      :      0.31s CPU      0.17s WALL (       1 calls)
     potinit      :      0.01s CPU      0.01s WALL (       1 calls)
     hinit0       :      0.21s CPU      0.41s WALL (       1 calls)

     Called by electrons:
     c_bands      :     22.62s CPU     11.77s WALL (      19 calls)
     sum_band     :      2.28s CPU      1.18s WALL (      19 calls)
     v_of_rho     :      0.17s CPU      0.13s WALL (      20 calls)
     newd         :      0.12s CPU      0.11s WALL (      20 calls)
     mix_rho      :      0.08s CPU      0.04s WALL (      19 calls)

     Called by c_bands:
     init_us_2    :      0.42s CPU      0.21s WALL (     779 calls)
     cegterg      :     21.93s CPU     11.36s WALL (     361 calls)

     Called by *egterg:
     cdiaghg      :      2.10s CPU      1.08s WALL (    2814 calls)
     h_psi        :     16.40s CPU      8.50s WALL (    2833 calls)
     s_psi        :      0.45s CPU      0.23s WALL (    2833 calls)
     g_psi        :      0.15s CPU      0.08s WALL (    2453 calls)

     Called by h_psi:
     h_psi:calbec :      2.00s CPU      1.05s WALL (    2833 calls)
     vloc_psi     :     13.42s CPU      6.94s WALL (    2833 calls)
     add_vuspsi   :      0.77s CPU      0.40s WALL (    2833 calls)

     General routines
     calbec       :      2.29s CPU      1.19s WALL (    3517 calls)
     fft          :      0.25s CPU      0.44s WALL (     245 calls)
     ffts         :      0.01s CPU      0.00s WALL (      19 calls)
     fftw         :     12.60s CPU      6.53s WALL (   54128 calls)

     Parallel routines

     PWSCF        :     26.28s CPU     14.38s WALL


   This run was terminated on:  15: 9:51  16Apr2025            

=------------------------------------------------------------------------------=
   JOB DONE.
=------------------------------------------------------------------------------=
