
     Program PWSCF v.7.4.1 starts on 16Apr2025 at 15: 8:40 

     This program is part of the open-source Quantum ESPRESSO suite
     for quantum simulation of materials; please cite
         "P. Giannozzi et al., J. Phys.:Condens. Matter 21 395502 (2009);
         "P. Giannozzi et al., J. Phys.:Condens. Matter 29 465901 (2017);
         "P. Giannozzi et al., J. Chem. Phys. 152 154105 (2020);
          URL http://www.quantum-espresso.org", 
     in publications or presentations arising from this work. More details at
     http://www.quantum-espresso.org/quote

     Parallel version (MPI), running on     7 processors

     MPI processes distributed on     1 nodes
     14939 MiB available memory on the printing compute node when the environment starts

     Waiting for input...
     Reading input from standard input

     Current dimensions of program PWSCF are:
     Max number of different atomic species (ntypx) = 10
     Max number of k-points (npk) =  40000
     Max angular momentum in pseudopotentials (lmaxx) =  4

     R & G space division:  proc/nbgrp/npool/nimage =       7
     Subspace diagonalization in iterative solution of the eigenvalue problem:
     a serial algorithm will be used


     Parallelization info
     --------------------
     sticks:   dense  smooth     PW     G-vecs:    dense   smooth      PW
     Min          18      18      6                 1042     1042     210
     Max          19      19      7                 1062     1062     224
     Sum         127     127     43                 7339     7339    1521

     Using Slab Decomposition



     bravais-lattice index     =            4
     lattice parameter (alat)  =       4.6561  a.u.
     unit-cell volume          =     532.1899 (a.u.)^3
     number of atoms/cell      =            6
     number of atomic types    =            1
     number of electrons       =        24.00
     number of Kohn-Sham states=           16
     kinetic-energy cutoff     =      22.0000  Ry
     charge density cutoff     =      88.0000  Ry
     scf convergence threshold =      1.0E-08
     mixing beta               =       0.7000
     number of iterations used =            8  plain     mixing
     Exchange-correlation= PBE
                           (   1   4   3   4   0   0   0)

     celldm(1)=   4.656107  celldm(2)=   0.000000  celldm(3)=   6.087896
     celldm(4)=   0.000000  celldm(5)=   0.000000  celldm(6)=   0.000000

     crystal axes: (cart. coord. in units of alat)
               a(1) = (   1.000000   0.000000   0.000000 )  
               a(2) = (  -0.500000   0.866025   0.000000 )  
               a(3) = (   0.000000   0.000000   6.087896 )  

     reciprocal axes: (cart. coord. in units 2 pi/alat)
               b(1) = (  1.000000  0.577350 -0.000000 )  
               b(2) = (  0.000000  1.154701  0.000000 )  
               b(3) = (  0.000000 -0.000000  0.164260 )  


     PseudoPot. # 1 for C  read from file:
     /run/media/rfa/SATA/Skripsi/DFT/Graphene-copy/pseudo/C.pbe-n-rrkjus_psl.0.1.UPF
     MD5 check sum: 96a6a315177d77e6c95bf6fd3870f9e3
     Pseudo is Ultrasoft + core correction, Zval =  4.0
     Generated using &quot;atomic&quot; code by A. Dal Corso  v.6.3MaX
     Using radial grid of 1073 points,  4 beta functions with: 
                l(1) =   0
                l(2) =   0
                l(3) =   1
                l(4) =   1
     Q(r) pseudized with 0 coefficients 


     atomic species   valence    mass     pseudopotential
     C                 4.00    12.01070     C ( 1.00)

      6 Sym. Ops. (no inversion) found



   Cartesian axes

     site n.     atom                  positions (alat units)
         1        C      tau(   1) = (   0.0000000   0.5773503   3.0439478  )
         2        C      tau(   2) = (   0.5000000   0.2886751   3.0439478  )
         3        C      tau(   3) = (   0.0000000   0.0000000   3.2468777  )
         4        C      tau(   4) = (   0.0000000   0.5773503   3.2468777  )
         5        C      tau(   5) = (   0.0000000   0.5773503   3.4498075  )
         6        C      tau(   6) = (   0.5000000   0.2886751   3.4498075  )

     number of k points=    19  Marzari-Vanderbilt smearing, width (Ry)=  0.0200
                       cart. coord. in units 2pi/alat
        k(    1) = (   0.0000000   0.0000000   0.0000000), wk =   0.0138889
        k(    2) = (   0.0000000   0.0962250   0.0000000), wk =   0.0833333
        k(    3) = (   0.0000000   0.1924501   0.0000000), wk =   0.0833333
        k(    4) = (   0.0000000   0.2886751   0.0000000), wk =   0.0833333
        k(    5) = (   0.0000000   0.3849002   0.0000000), wk =   0.0833333
        k(    6) = (   0.0000000   0.4811252   0.0000000), wk =   0.0833333
        k(    7) = (   0.0000000  -0.5773503   0.0000000), wk =   0.0416667
        k(    8) = (   0.0833333   0.1443376   0.0000000), wk =   0.0833333
        k(    9) = (   0.0833333   0.2405626   0.0000000), wk =   0.1666667
        k(   10) = (   0.0833333   0.3367877   0.0000000), wk =   0.1666667
        k(   11) = (   0.0833333   0.4330127   0.0000000), wk =   0.1666667
        k(   12) = (   0.0833333   0.5292377   0.0000000), wk =   0.1666667
        k(   13) = (   0.1666667   0.2886751   0.0000000), wk =   0.0833333
        k(   14) = (   0.1666667   0.3849002   0.0000000), wk =   0.1666667
        k(   15) = (   0.1666667   0.4811252   0.0000000), wk =   0.1666667
        k(   16) = (   0.1666667   0.5773503   0.0000000), wk =   0.0833333
        k(   17) = (   0.2500000   0.4330127   0.0000000), wk =   0.0833333
        k(   18) = (   0.2500000   0.5292377   0.0000000), wk =   0.1666667
        k(   19) = (   0.3333333   0.5773503   0.0000000), wk =   0.0277778

     Dense  grid:     7339 G-vectors     FFT dimensions: (  15,  15,  90)

     Estimated max dynamical RAM per process >       2.54 MB

     Estimated total dynamical RAM >      17.81 MB

     Check: negative core charge=   -0.000267

     Initial potential from superposition of free atoms

     starting charge      23.9998, renormalised to      24.0000

     negative rho (up, down):  1.369E-02 0.000E+00
     Starting wfcs are   24 randomized atomic wfcs

     total cpu time spent up to now is        0.3 secs

     per-process dynamical memory:     8.6 Mb

     Self-consistent Calculation

     iteration #  1     ecut=    22.00 Ry     beta= 0.70
     Davidson diagonalization with overlap
     ethr =  1.00E-02,  avg # of iterations =  5.4

     negative rho (up, down):  1.262E-01 0.000E+00

     total cpu time spent up to now is        0.5 secs

     total energy              =     -39.60787653 Ry
     estimated scf accuracy    <      12.26560329 Ry

     iteration #  2     ecut=    22.00 Ry     beta= 0.70
     Davidson diagonalization with overlap
     ethr =  1.00E-02,  avg # of iterations =  9.6

     negative rho (up, down):  1.779E-04 0.000E+00

     total cpu time spent up to now is        0.8 secs

     total energy              =     -32.84476329 Ry
     estimated scf accuracy    <      37.55946888 Ry

     iteration #  3     ecut=    22.00 Ry     beta= 0.70
     Davidson diagonalization with overlap
     ethr =  1.00E-02,  avg # of iterations =  8.1

     negative rho (up, down):  6.618E-03 0.000E+00

     total cpu time spent up to now is        1.0 secs

     total energy              =     -44.85477472 Ry
     estimated scf accuracy    <       1.92516532 Ry

     iteration #  4     ecut=    22.00 Ry     beta= 0.70
     Davidson diagonalization with overlap
     ethr =  8.02E-03,  avg # of iterations =  1.6

     negative rho (up, down):  2.146E-02 0.000E+00

     total cpu time spent up to now is        1.1 secs

     total energy              =     -44.73945089 Ry
     estimated scf accuracy    <       0.85046437 Ry

     iteration #  5     ecut=    22.00 Ry     beta= 0.70
     Davidson diagonalization with overlap
     ethr =  3.54E-03,  avg # of iterations =  1.5

     negative rho (up, down):  3.286E-02 0.000E+00

     total cpu time spent up to now is        1.2 secs

     total energy              =     -44.64739896 Ry
     estimated scf accuracy    <       0.52574775 Ry

     iteration #  6     ecut=    22.00 Ry     beta= 0.70
     Davidson diagonalization with overlap
     ethr =  2.19E-03,  avg # of iterations =  1.9

     negative rho (up, down):  6.334E-02 0.000E+00

     total cpu time spent up to now is        1.3 secs

     total energy              =     -44.49751024 Ry
     estimated scf accuracy    <       0.37806608 Ry

     iteration #  7     ecut=    22.00 Ry     beta= 0.70
     Davidson diagonalization with overlap
     ethr =  1.58E-03,  avg # of iterations =  2.7

     negative rho (up, down):  8.398E-02 0.000E+00

     total cpu time spent up to now is        1.4 secs

     total energy              =     -44.46210097 Ry
     estimated scf accuracy    <       0.13512534 Ry

     iteration #  8     ecut=    22.00 Ry     beta= 0.70
     Davidson diagonalization with overlap
     ethr =  5.63E-04,  avg # of iterations =  5.5

     negative rho (up, down):  1.395E-01 0.000E+00

     total cpu time spent up to now is        1.6 secs

     total energy              =     -44.41350551 Ry
     estimated scf accuracy    <       0.06689246 Ry

     iteration #  9     ecut=    22.00 Ry     beta= 0.70
     Davidson diagonalization with overlap
     ethr =  2.79E-04,  avg # of iterations =  8.0

     negative rho (up, down):  1.543E-01 0.000E+00

     total cpu time spent up to now is        1.8 secs

     total energy              =     -44.42007342 Ry
     estimated scf accuracy    <       0.00150925 Ry

     iteration # 10     ecut=    22.00 Ry     beta= 0.70
     Davidson diagonalization with overlap
     ethr =  6.29E-06,  avg # of iterations = 11.5

     negative rho (up, down):  1.449E-01 0.000E+00

     total cpu time spent up to now is        2.0 secs

     total energy              =     -44.42017481 Ry
     estimated scf accuracy    <       0.00094118 Ry

     iteration # 11     ecut=    22.00 Ry     beta= 0.70
     Davidson diagonalization with overlap
     ethr =  3.92E-06,  avg # of iterations =  9.2

     negative rho (up, down):  1.485E-01 0.000E+00

     total cpu time spent up to now is        2.2 secs

     total energy              =     -44.42058080 Ry
     estimated scf accuracy    <       0.00032652 Ry

     iteration # 12     ecut=    22.00 Ry     beta= 0.70
     Davidson diagonalization with overlap
     ethr =  1.36E-06,  avg # of iterations =  7.2

     negative rho (up, down):  1.492E-01 0.000E+00

     total cpu time spent up to now is        2.4 secs

     total energy              =     -44.42061703 Ry
     estimated scf accuracy    <       0.00000936 Ry

     iteration # 13     ecut=    22.00 Ry     beta= 0.70
     Davidson diagonalization with overlap
     ethr =  3.90E-08,  avg # of iterations =  4.5

     negative rho (up, down):  1.490E-01 0.000E+00

     total cpu time spent up to now is        2.5 secs

     total energy              =     -44.42062120 Ry
     estimated scf accuracy    <       0.00000293 Ry

     iteration # 14     ecut=    22.00 Ry     beta= 0.70
     Davidson diagonalization with overlap
     ethr =  1.22E-08,  avg # of iterations =  2.4

     negative rho (up, down):  1.491E-01 0.000E+00

     total cpu time spent up to now is        2.7 secs

     total energy              =     -44.42062178 Ry
     estimated scf accuracy    <       0.00000060 Ry

     iteration # 15     ecut=    22.00 Ry     beta= 0.70
     Davidson diagonalization with overlap
     ethr =  2.50E-09,  avg # of iterations =  2.2

     negative rho (up, down):  1.490E-01 0.000E+00

     total cpu time spent up to now is        2.8 secs

     total energy              =     -44.42062196 Ry
     estimated scf accuracy    <       0.00000019 Ry

     iteration # 16     ecut=    22.00 Ry     beta= 0.70
     Davidson diagonalization with overlap
     ethr =  7.89E-10,  avg # of iterations =  2.1

     negative rho (up, down):  1.490E-01 0.000E+00

     total cpu time spent up to now is        2.9 secs

     End of self-consistent calculation

          k = 0.0000 0.0000 0.0000 (   943 PWs)   bands (ev):

   -35.2607 -31.4199 -31.4199 -19.8730 -15.2597 -15.2597 -10.5849  -4.6058
    -4.0558  -4.0558  -1.7146   3.4728   3.6430   5.1079   5.1891   7.2428

          k = 0.0000 0.0962 0.0000 (   946 PWs)   bands (ev):

   -35.5290 -31.6709 -31.2604 -19.7548 -15.2774 -14.6985 -10.2006  -5.1127
    -4.2936  -4.0036  -1.5563   3.2624   3.8668   4.6954   5.3206   6.7896

          k = 0.0000 0.1925 0.0000 (   952 PWs)   bands (ev):

   -36.1151 -32.3071 -30.6733 -19.2925 -15.1992 -13.1840  -9.2158  -6.3228
    -5.0928  -3.9868  -0.9239   2.7494   4.5427   4.9690   5.9381   6.4648

          k = 0.0000 0.2887 0.0000 (   960 PWs)   bands (ev):

   -36.7356 -32.9377 -29.9936 -18.5503 -14.7724 -10.9510  -8.2070  -8.0024
    -5.9725  -3.9823  -0.8355   2.5929   3.5633   5.6670   5.9798   7.0015

          k = 0.0000 0.3849 0.0000 (   934 PWs)   bands (ev):

   -37.1213 -33.4147 -29.3765 -17.4583 -13.6075 -10.1283  -8.2041  -6.6179
    -6.4568  -3.6432  -2.0190   1.7313   2.9272   7.2458   7.4589   8.2900

          k = 0.0000 0.4811 0.0000 (   922 PWs)   bands (ev):

   -37.0838 -33.7318 -28.9668 -16.2617 -11.9003 -11.7690  -7.1127  -5.5270
    -4.8995  -3.7273  -3.5266   0.1843   3.2345   6.9919   9.2376   9.2865

          k = 0.0000-0.5774 0.0000 (   906 PWs)   bands (ev):

   -36.8860 -33.7821 -28.7713 -15.5396 -12.8833 -10.9609  -7.2876  -4.8578
    -4.0440  -3.8401  -3.4921  -0.7083   3.4162   5.9969  10.3598  11.4309

          k = 0.0833 0.1443 0.0000 (   939 PWs)   bands (ev):

   -35.9351 -32.0876 -30.8166 -19.4150 -15.2599 -13.6102  -9.4530  -5.7516
    -5.0839  -3.7507  -0.9896   2.9804   4.3207   4.8056   5.7560   7.2635

          k = 0.0833 0.2406 0.0000 (   948 PWs)   bands (ev):

   -36.5015 -32.7599 -30.0835 -18.8272 -15.0852 -11.6503  -8.4128  -7.2047
    -6.1836  -3.6928  -0.6666   2.7805   4.3974   5.2257   5.5638   6.6269

          k = 0.0833 0.3368 0.0000 (   946 PWs)   bands (ev):

   -36.9685 -33.4298 -29.3623 -17.9230 -14.4379  -9.1162  -9.1003  -7.1105
    -6.9738  -3.5683  -1.3226   2.2543   3.0365   6.5638   6.8288   7.5221

          k = 0.0833 0.4330 0.0000 (   919 PWs)   bands (ev):

   -37.0488 -33.8959 -28.7123 -16.7300 -12.9783 -10.9609  -7.5104  -6.2464
    -5.4035  -3.2493  -2.8838   0.8294   3.5024   8.0476   8.4001   8.4850

          k = 0.0833 0.5292 0.0000 (   915 PWs)   bands (ev):

   -36.9682 -34.1177 -28.4268 -15.6558 -12.4992 -11.7308  -7.8104  -5.3881
    -4.2459  -3.2923  -2.7805  -0.4956   3.7949   6.3360  10.0931  10.5637

          k = 0.1667 0.2887 0.0000 (   937 PWs)   bands (ev):

   -36.8459 -33.3030 -29.1948 -18.0371 -14.7156  -9.2068  -8.0610  -7.8711
    -7.2451  -3.3367  -0.8941   2.3952   3.2749   6.3465   6.6186   7.4905

          k = 0.1667 0.3849 0.0000 (   922 PWs)   bands (ev):

   -36.9704 -34.1743 -28.2980 -17.0102 -14.0581  -9.8426  -8.5813  -6.4662
    -5.9473  -3.0305  -2.1950   1.2113   4.0962   7.8716   8.0920   8.1455

          k = 0.1667 0.4811 0.0000 (   910 PWs)   bands (ev):

   -36.8754 -34.6762 -27.7017 -15.8414 -12.9819 -11.5668  -8.9432  -5.7431
    -4.4043  -2.8477  -1.4342  -0.0064   4.7908   7.3725   9.7383   9.8616

          k = 0.1667 0.5774 0.0000 (   914 PWs)   bands (ev):

   -36.9806 -34.8893 -27.5479 -15.1232 -12.5176 -12.4595  -9.0926  -6.5641
    -3.8026  -2.8309  -0.9913   0.0587   5.0731   6.2909  10.1831  10.9908

          k = 0.2500 0.4330 0.0000 (   905 PWs)   bands (ev):

   -36.8342 -34.8051 -27.3544 -15.9304 -13.5124 -10.6972  -9.9237  -5.9374
    -4.5731  -2.7099  -0.8940   0.1116   5.3835   8.4509   9.5976   9.6276

          k = 0.2500 0.5292 0.0000 (   904 PWs)   bands (ev):

   -36.7732 -35.3378 -26.8521 -14.9023 -13.0180 -11.8951 -10.3471  -6.9996
    -3.4614  -2.6064  -1.1030   2.4000   6.4734   7.3139   9.6155  10.4545

          k = 0.3333 0.5774 0.0000 (   900 PWs)   bands (ev):

   -36.5479 -35.5519 -26.5226 -14.4149 -12.8644 -11.9146 -11.1316  -7.3204
    -2.7192  -2.6114  -1.8992   6.1017   6.1348   7.8470   8.6548   9.9153

     the Fermi energy is     3.0424 ev

!    total energy              =     -44.42062203 Ry
     estimated scf accuracy    <          4.4E-09 Ry
     smearing contrib. (-TS)   =      -0.00031445 Ry
     internal energy E=F+TS    =     -44.42030758 Ry

     The total energy is F=E-TS. E is the sum of the following terms:
     one-electron contribution =   -1330.77042885 Ry
     hartree contribution      =     671.59521974 Ry
     xc contribution           =     -31.91000312 Ry
     ewald contribution        =     646.66490465 Ry

     convergence has been achieved in  16 iterations

     negative rho (up, down):  1.490E-01 0.000E+00

     Forces acting on atoms (cartesian axes, Ry/au):

     atom    1 type  1   force =     0.00000000    0.00000000  -28.37192246
     atom    2 type  1   force =     0.00000000   -0.00000000   -3.10525569
     atom    3 type  1   force =     0.00000000    0.00000000    0.00000663
     atom    4 type  1   force =     0.00000000    0.00000000   -0.00001064
     atom    5 type  1   force =     0.00000000    0.00000000   28.37192944
     atom    6 type  1   force =     0.00000000    0.00000000    3.10525272

     Total force =    40.363567     Total SCF correction =     0.000285


     Computing stress (Cartesian axis) and pressure


     negative rho (up, down):  1.490E-01 0.000E+00
          total   stress  (Ry/bohr**3)                   (kbar)     P=     4791.52
   0.00294977   0.00000000   0.00000000          433.93        0.00        0.00
   0.00000000   0.00294977  -0.00000000            0.00      433.93       -0.00
   0.00000000  -0.00000000   0.09181674            0.00       -0.00    13506.71


     Writing all to output data dir /run/media/rfa/SATA/Skripsi/DFT/Graphene-copy/tmp/gr-ab-3L.save/ :
     XML data file, charge density, pseudopotentials, collected wavefunctions

     init_run     :      0.22s CPU      0.28s WALL (       1 calls)
     electrons    :      4.58s CPU      2.57s WALL (       1 calls)
     forces       :      0.03s CPU      0.01s WALL (       1 calls)
     stress       :      0.08s CPU      0.04s WALL (       1 calls)

     Called by init_run:
     wfcinit      :      0.09s CPU      0.05s WALL (       1 calls)
     potinit      :      0.00s CPU      0.00s WALL (       1 calls)
     hinit0       :      0.12s CPU      0.21s WALL (       1 calls)

     Called by electrons:
     c_bands      :      4.05s CPU      2.27s WALL (      16 calls)
     sum_band     :      0.43s CPU      0.25s WALL (      16 calls)
     v_of_rho     :      0.05s CPU      0.03s WALL (      17 calls)
     newd         :      0.03s CPU      0.02s WALL (      17 calls)
     mix_rho      :      0.01s CPU      0.01s WALL (      16 calls)

     Called by c_bands:
     init_us_2    :      0.07s CPU      0.04s WALL (     665 calls)
     cegterg      :      3.84s CPU      2.12s WALL (     304 calls)

     Called by *egterg:
     cdiaghg      :      1.16s CPU      0.60s WALL (    1882 calls)
     h_psi        :      2.20s CPU      1.26s WALL (    1901 calls)
     s_psi        :      0.08s CPU      0.04s WALL (    1901 calls)
     g_psi        :      0.03s CPU      0.02s WALL (    1578 calls)

     Called by h_psi:
     h_psi:calbec :      0.21s CPU      0.12s WALL (    1901 calls)
     vloc_psi     :      1.85s CPU      1.06s WALL (    1901 calls)
     add_vuspsi   :      0.08s CPU      0.05s WALL (    1901 calls)

     General routines
     calbec       :      0.28s CPU      0.16s WALL (    2528 calls)
     fft          :      0.13s CPU      0.21s WALL (     212 calls)
     ffts         :      0.00s CPU      0.00s WALL (      16 calls)
     fftw         :      1.81s CPU      1.01s WALL (   34852 calls)

     Parallel routines

     PWSCF        :      4.98s CPU      3.07s WALL


   This run was terminated on:  15: 8:43  16Apr2025            

=------------------------------------------------------------------------------=
   JOB DONE.
=------------------------------------------------------------------------------=
