
     Program PWSCF v.7.4.1 starts on 16Apr2025 at 15:10:42 

     This program is part of the open-source Quantum ESPRESSO suite
     for quantum simulation of materials; please cite
         "P. Giannozzi et al., J. Phys.:Condens. Matter 21 395502 (2009);
         "P. Giannozzi et al., J. Phys.:Condens. Matter 29 465901 (2017);
         "P. Giannozzi et al., J. Chem. Phys. 152 154105 (2020);
          URL http://www.quantum-espresso.org", 
     in publications or presentations arising from this work. More details at
     http://www.quantum-espresso.org/quote

     Parallel version (MPI), running on     7 processors

     MPI processes distributed on     1 nodes
     14821 MiB available memory on the printing compute node when the environment starts

     Waiting for input...
     Reading input from standard input

     Current dimensions of program PWSCF are:
     Max number of different atomic species (ntypx) = 10
     Max number of k-points (npk) =  40000
     Max angular momentum in pseudopotentials (lmaxx) =  4

     R & G space division:  proc/nbgrp/npool/nimage =       7
     Subspace diagonalization in iterative solution of the eigenvalue problem:
     a serial algorithm will be used


     Parallelization info
     --------------------
     sticks:   dense  smooth     PW     G-vecs:    dense   smooth      PW
     Min          54      54     17                 5366     5366     925
     Max          55      55     18                 5395     5395     942
     Sum         379     379    121                37615    37615    6525

     Using Slab Decomposition



     bravais-lattice index     =            4
     lattice parameter (alat)  =       4.6561  a.u.
     unit-cell volume          =     532.1899 (a.u.)^3
     number of atoms/cell      =            6
     number of atomic types    =            1
     number of electrons       =        24.00
     number of Kohn-Sham states=           16
     kinetic-energy cutoff     =      65.0000  Ry
     charge density cutoff     =     260.0000  Ry
     scf convergence threshold =      1.0E-08
     mixing beta               =       0.7000
     number of iterations used =            8  plain     mixing
     Exchange-correlation= PBE
                           (   1   4   3   4   0   0   0)

     celldm(1)=   4.656107  celldm(2)=   0.000000  celldm(3)=   6.087896
     celldm(4)=   0.000000  celldm(5)=   0.000000  celldm(6)=   0.000000

     crystal axes: (cart. coord. in units of alat)
               a(1) = (   1.000000   0.000000   0.000000 )  
               a(2) = (  -0.500000   0.866025   0.000000 )  
               a(3) = (   0.000000   0.000000   6.087896 )  

     reciprocal axes: (cart. coord. in units 2 pi/alat)
               b(1) = (  1.000000  0.577350 -0.000000 )  
               b(2) = (  0.000000  1.154701  0.000000 )  
               b(3) = (  0.000000 -0.000000  0.164260 )  


     PseudoPot. # 1 for C  read from file:
     /run/media/rfa/SATA/Skripsi/DFT/Graphene-copy/pseudo/C.pbe-n-rrkjus_psl.0.1.UPF
     MD5 check sum: 96a6a315177d77e6c95bf6fd3870f9e3
     Pseudo is Ultrasoft + core correction, Zval =  4.0
     Generated using &quot;atomic&quot; code by A. Dal Corso  v.6.3MaX
     Using radial grid of 1073 points,  4 beta functions with: 
                l(1) =   0
                l(2) =   0
                l(3) =   1
                l(4) =   1
     Q(r) pseudized with 0 coefficients 


     atomic species   valence    mass     pseudopotential
     C                 4.00    12.01070     C ( 1.00)

      6 Sym. Ops. (no inversion) found



   Cartesian axes

     site n.     atom                  positions (alat units)
         1        C      tau(   1) = (   0.0000000   0.5773503   3.0439478  )
         2        C      tau(   2) = (   0.5000000   0.2886751   3.0439478  )
         3        C      tau(   3) = (   0.0000000   0.0000000   3.2468777  )
         4        C      tau(   4) = (   0.0000000   0.5773503   3.2468777  )
         5        C      tau(   5) = (   0.0000000   0.5773503   3.4498075  )
         6        C      tau(   6) = (   0.5000000   0.2886751   3.4498075  )

     number of k points=    19  Marzari-Vanderbilt smearing, width (Ry)=  0.0200
                       cart. coord. in units 2pi/alat
        k(    1) = (   0.0000000   0.0000000   0.0000000), wk =   0.0138889
        k(    2) = (   0.0000000   0.0962250   0.0000000), wk =   0.0833333
        k(    3) = (   0.0000000   0.1924501   0.0000000), wk =   0.0833333
        k(    4) = (   0.0000000   0.2886751   0.0000000), wk =   0.0833333
        k(    5) = (   0.0000000   0.3849002   0.0000000), wk =   0.0833333
        k(    6) = (   0.0000000   0.4811252   0.0000000), wk =   0.0833333
        k(    7) = (   0.0000000  -0.5773503   0.0000000), wk =   0.0416667
        k(    8) = (   0.0833333   0.1443376   0.0000000), wk =   0.0833333
        k(    9) = (   0.0833333   0.2405626   0.0000000), wk =   0.1666667
        k(   10) = (   0.0833333   0.3367877   0.0000000), wk =   0.1666667
        k(   11) = (   0.0833333   0.4330127   0.0000000), wk =   0.1666667
        k(   12) = (   0.0833333   0.5292377   0.0000000), wk =   0.1666667
        k(   13) = (   0.1666667   0.2886751   0.0000000), wk =   0.0833333
        k(   14) = (   0.1666667   0.3849002   0.0000000), wk =   0.1666667
        k(   15) = (   0.1666667   0.4811252   0.0000000), wk =   0.1666667
        k(   16) = (   0.1666667   0.5773503   0.0000000), wk =   0.0833333
        k(   17) = (   0.2500000   0.4330127   0.0000000), wk =   0.0833333
        k(   18) = (   0.2500000   0.5292377   0.0000000), wk =   0.1666667
        k(   19) = (   0.3333333   0.5773503   0.0000000), wk =   0.0277778

     Dense  grid:    37615 G-vectors     FFT dimensions: (  24,  24, 150)

     Estimated max dynamical RAM per process >      12.13 MB

     Estimated total dynamical RAM >      84.91 MB

     Check: negative core charge=   -0.000005

     Initial potential from superposition of free atoms

     starting charge      23.9998, renormalised to      24.0000

     negative rho (up, down):  1.591E-05 0.000E+00
     Starting wfcs are   24 randomized atomic wfcs

     total cpu time spent up to now is        0.8 secs

     per-process dynamical memory:    13.9 Mb

     Self-consistent Calculation

     iteration #  1     ecut=    65.00 Ry     beta= 0.70
     Davidson diagonalization with overlap
     ethr =  1.00E-02,  avg # of iterations =  9.8

     negative rho (up, down):  1.087E-03 0.000E+00

     total cpu time spent up to now is        2.4 secs

     total energy              =     -40.33969269 Ry
     estimated scf accuracy    <      19.14602167 Ry

     iteration #  2     ecut=    65.00 Ry     beta= 0.70
     Davidson diagonalization with overlap
     ethr =  1.00E-02,  avg # of iterations = 12.3

     total cpu time spent up to now is        3.9 secs

     total energy              =     -40.04880330 Ry
     estimated scf accuracy    <      26.17398458 Ry

     iteration #  3     ecut=    65.00 Ry     beta= 0.70
     Davidson diagonalization with overlap
     ethr =  1.00E-02,  avg # of iterations =  9.1

     total cpu time spent up to now is        5.1 secs

     total energy              =     -48.16417058 Ry
     estimated scf accuracy    <       1.41480942 Ry

     iteration #  4     ecut=    65.00 Ry     beta= 0.70
     Davidson diagonalization with overlap
     ethr =  5.90E-03,  avg # of iterations =  3.5

     total cpu time spent up to now is        5.7 secs

     total energy              =     -48.17698737 Ry
     estimated scf accuracy    <       0.63411335 Ry

     iteration #  5     ecut=    65.00 Ry     beta= 0.70
     Davidson diagonalization with overlap
     ethr =  2.64E-03,  avg # of iterations =  3.8

     total cpu time spent up to now is        6.4 secs

     total energy              =     -48.15726746 Ry
     estimated scf accuracy    <       0.55381096 Ry

     iteration #  6     ecut=    65.00 Ry     beta= 0.70
     Davidson diagonalization with overlap
     ethr =  2.31E-03,  avg # of iterations =  1.9

     total cpu time spent up to now is        6.9 secs

     total energy              =     -48.15858415 Ry
     estimated scf accuracy    <       0.15024168 Ry

     iteration #  7     ecut=    65.00 Ry     beta= 0.70
     Davidson diagonalization with overlap
     ethr =  6.26E-04,  avg # of iterations =  7.5

     negative rho (up, down):  2.280E-08 0.000E+00

     total cpu time spent up to now is        7.8 secs

     total energy              =     -48.22553733 Ry
     estimated scf accuracy    <       0.03599085 Ry

     iteration #  8     ecut=    65.00 Ry     beta= 0.70
     Davidson diagonalization with overlap
     ethr =  1.50E-04,  avg # of iterations =  9.1

     negative rho (up, down):  5.753E-08 0.000E+00

     total cpu time spent up to now is        8.9 secs

     total energy              =     -48.24791142 Ry
     estimated scf accuracy    <       0.02902793 Ry

     iteration #  9     ecut=    65.00 Ry     beta= 0.70
     Davidson diagonalization with overlap
     c_bands:  1 eigenvalues not converged
     ethr =  1.21E-04,  avg # of iterations =  9.1

     negative rho (up, down):  1.653E-06 0.000E+00

     total cpu time spent up to now is        9.8 secs

     total energy              =     -48.23422263 Ry
     estimated scf accuracy    <       0.03984591 Ry

     iteration # 10     ecut=    65.00 Ry     beta= 0.70
     Davidson diagonalization with overlap
     ethr =  1.21E-04,  avg # of iterations =  4.6

     negative rho (up, down):  2.705E-03 0.000E+00

     total cpu time spent up to now is       10.5 secs

     total energy              =     -48.24039673 Ry
     estimated scf accuracy    <       0.00379947 Ry

     iteration # 11     ecut=    65.00 Ry     beta= 0.70
     Davidson diagonalization with overlap
     c_bands:  3 eigenvalues not converged
     c_bands:  2 eigenvalues not converged
     c_bands:  2 eigenvalues not converged
     c_bands:  2 eigenvalues not converged
     c_bands:  1 eigenvalues not converged
     ethr =  1.58E-05,  avg # of iterations = 17.4

     negative rho (up, down):  1.095E-03 0.000E+00

     total cpu time spent up to now is       12.7 secs

     total energy              =     -48.24966372 Ry
     estimated scf accuracy    <       0.02516307 Ry

     iteration # 12     ecut=    65.00 Ry     beta= 0.70
     Davidson diagonalization with overlap
     c_bands:  1 eigenvalues not converged
     ethr =  1.58E-05,  avg # of iterations =  3.3

     negative rho (up, down):  1.325E-03 0.000E+00

     total cpu time spent up to now is       13.3 secs

     total energy              =     -48.25817628 Ry
     estimated scf accuracy    <       0.02227312 Ry

     iteration # 13     ecut=    65.00 Ry     beta= 0.70
     Davidson diagonalization with overlap
     ethr =  1.58E-05,  avg # of iterations =  7.1

     negative rho (up, down):  2.063E-03 0.000E+00

     total cpu time spent up to now is       14.1 secs

     total energy              =     -48.26082977 Ry
     estimated scf accuracy    <       0.04391920 Ry

     iteration # 14     ecut=    65.00 Ry     beta= 0.70
     Davidson diagonalization with overlap
     ethr =  1.58E-05,  avg # of iterations =  3.5

     negative rho (up, down):  1.522E-03 0.000E+00

     total cpu time spent up to now is       14.8 secs

     total energy              =     -48.24762925 Ry
     estimated scf accuracy    <       0.04999342 Ry

     iteration # 15     ecut=    65.00 Ry     beta= 0.70
     Davidson diagonalization with overlap
     ethr =  1.58E-05,  avg # of iterations =  2.1

     negative rho (up, down):  1.248E-03 0.000E+00

     total cpu time spent up to now is       15.3 secs

     total energy              =     -48.24172692 Ry
     estimated scf accuracy    <       0.02426344 Ry

     iteration # 16     ecut=    65.00 Ry     beta= 0.70
     Davidson diagonalization with overlap
     ethr =  1.58E-05,  avg # of iterations =  5.3

     negative rho (up, down):  8.767E-04 0.000E+00

     total cpu time spent up to now is       16.2 secs

     total energy              =     -48.23894119 Ry
     estimated scf accuracy    <       0.00845576 Ry

     iteration # 17     ecut=    65.00 Ry     beta= 0.70
     Davidson diagonalization with overlap
     c_bands:  2 eigenvalues not converged
     c_bands:  1 eigenvalues not converged
     c_bands:  1 eigenvalues not converged
     ethr =  1.58E-05,  avg # of iterations = 11.7

     negative rho (up, down):  8.998E-04 0.000E+00

     total cpu time spent up to now is       17.3 secs

     total energy              =     -48.24145798 Ry
     estimated scf accuracy    <       0.00012523 Ry

     iteration # 18     ecut=    65.00 Ry     beta= 0.70
     Davidson diagonalization with overlap
     c_bands:  1 eigenvalues not converged
     c_bands:  1 eigenvalues not converged
     c_bands:  1 eigenvalues not converged
     c_bands:  1 eigenvalues not converged
     c_bands:  1 eigenvalues not converged
     c_bands:  1 eigenvalues not converged
     c_bands:  1 eigenvalues not converged
     c_bands:  3 eigenvalues not converged
     c_bands:  1 eigenvalues not converged
     c_bands:  1 eigenvalues not converged
     ethr =  5.22E-07,  avg # of iterations = 17.9

     negative rho (up, down):  9.321E-04 0.000E+00

     total cpu time spent up to now is       19.9 secs

     total energy              =     -48.24217525 Ry
     estimated scf accuracy    <       0.00008632 Ry

     iteration # 19     ecut=    65.00 Ry     beta= 0.70
     Davidson diagonalization with overlap
     c_bands:  1 eigenvalues not converged
     ethr =  3.60E-07,  avg # of iterations =  5.8

     negative rho (up, down):  1.004E-03 0.000E+00

     total cpu time spent up to now is       20.6 secs

     total energy              =     -48.24216999 Ry
     estimated scf accuracy    <       0.00003631 Ry

     iteration # 20     ecut=    65.00 Ry     beta= 0.70
     Davidson diagonalization with overlap
     ethr =  1.51E-07,  avg # of iterations =  4.8

     negative rho (up, down):  1.006E-03 0.000E+00

     total cpu time spent up to now is       21.3 secs

     total energy              =     -48.24218225 Ry
     estimated scf accuracy    <       0.00000276 Ry

     iteration # 21     ecut=    65.00 Ry     beta= 0.70
     Davidson diagonalization with overlap
     ethr =  1.15E-08,  avg # of iterations = 11.4

     negative rho (up, down):  9.970E-04 0.000E+00

     total cpu time spent up to now is       23.1 secs

     total energy              =     -48.24219097 Ry
     estimated scf accuracy    <       0.00000369 Ry

     iteration # 22     ecut=    65.00 Ry     beta= 0.70
     Davidson diagonalization with overlap
     ethr =  1.15E-08,  avg # of iterations =  1.4

     negative rho (up, down):  9.967E-04 0.000E+00

     total cpu time spent up to now is       23.6 secs

     total energy              =     -48.24218987 Ry
     estimated scf accuracy    <       0.00000292 Ry

     iteration # 23     ecut=    65.00 Ry     beta= 0.70
     Davidson diagonalization with overlap
     ethr =  1.15E-08,  avg # of iterations =  1.1

     negative rho (up, down):  1.002E-03 0.000E+00

     total cpu time spent up to now is       24.1 secs

     total energy              =     -48.24218990 Ry
     estimated scf accuracy    <       0.00000076 Ry

     iteration # 24     ecut=    65.00 Ry     beta= 0.70
     Davidson diagonalization with overlap
     ethr =  3.15E-09,  avg # of iterations =  4.3

     negative rho (up, down):  1.004E-03 0.000E+00

     total cpu time spent up to now is       24.8 secs

     total energy              =     -48.24219002 Ry
     estimated scf accuracy    <       0.00000027 Ry

     iteration # 25     ecut=    65.00 Ry     beta= 0.70
     Davidson diagonalization with overlap
     ethr =  1.12E-09,  avg # of iterations =  6.0

     negative rho (up, down):  1.003E-03 0.000E+00

     total cpu time spent up to now is       25.7 secs

     total energy              =     -48.24219018 Ry
     estimated scf accuracy    <       0.00000004 Ry

     iteration # 26     ecut=    65.00 Ry     beta= 0.70
     Davidson diagonalization with overlap
     ethr =  1.62E-10,  avg # of iterations =  7.8

     negative rho (up, down):  1.003E-03 0.000E+00

     total cpu time spent up to now is       27.0 secs

     End of self-consistent calculation

          k = 0.0000 0.0000 0.0000 (  4651 PWs)   bands (ev):

   -33.3854 -27.4955 -27.4955 -21.5589 -13.7061 -13.7061 -11.3083  -6.1988
    -2.0417  -2.0027  -2.0027   3.1394   5.3427   6.2577   6.4926   8.0585

          k = 0.0000 0.0962 0.0000 (  4651 PWs)   bands (ev):

   -33.4969 -27.7462 -27.4363 -21.4108 -13.7787 -13.1050 -10.8232  -6.5551
    -2.3560  -2.1946  -1.8802   2.8424   5.5439   6.2784   6.6693   8.0378

          k = 0.0000 0.1925 0.0000 (  4667 PWs)   bands (ev):

   -33.7843 -28.3623 -27.3014 -20.9762 -13.6869 -11.4556  -9.7091  -7.6533
    -3.1746  -2.6470  -1.5447   2.6021   6.1167   6.7829   7.1395   8.0286

          k = 0.0000 0.2887 0.0000 (  4686 PWs)   bands (ev):

   -34.1441 -29.0828 -27.1672 -20.2720 -13.1417  -9.3408  -9.0763  -8.3475
    -4.0737  -3.0624  -1.4981   2.8394   5.1508   7.1669   7.8110   7.9519

          k = 0.0000 0.3849 0.0000 (  4690 PWs)   bands (ev):

   -34.4745 -29.7054 -27.0780 -19.3468 -12.1409 -11.2232  -6.9301  -6.3111
    -4.8182  -3.3206  -2.1910   2.3499   3.3334   8.6567   9.2346   9.2673

          k = 0.0000 0.4811 0.0000 (  4700 PWs)   bands (ev):

   -34.7015 -30.1156 -27.0353 -18.3566 -12.8742 -10.9446  -5.7249  -5.2964
    -3.6651  -3.4526  -3.2641   0.1447   3.7908   7.8170  10.5858  10.7851

          k = 0.0000-0.5774 0.0000 (  4724 PWs)   bands (ev):

   -34.7819 -30.2578 -27.0237 -17.8257 -13.6369 -10.3001  -5.4602  -5.3964
    -3.5414  -3.4922  -2.3600  -0.8875   3.9756   6.5848  11.4993  11.5857

          k = 0.0833 0.1443 0.0000 (  4666 PWs)   bands (ev):

   -33.6933 -28.2334 -27.2801 -21.1199 -13.7944 -11.9370 -10.0495  -7.2616
    -3.2277  -2.2592  -1.6296   2.6761   5.9332   6.5885   6.9950   8.0583

          k = 0.0833 0.2406 0.0000 (  4682 PWs)   bands (ev):

   -34.0007 -29.0047 -27.0178 -20.5497 -13.5336  -9.8420  -8.8700  -8.5821
    -4.5128  -2.3111  -1.4326   2.8969   6.1726   6.7993   7.3853   7.5938

          k = 0.0833 0.3368 0.0000 (  4711 PWs)   bands (ev):

   -34.3158 -29.7763 -26.7747 -19.7301 -12.8255 -10.3038  -7.5744  -7.1519
    -5.5899  -2.3783  -1.7856   3.3777   3.4153   7.8438   8.6169   8.6312

          k = 0.0833 0.4330 0.0000 (  4717 PWs)   bands (ev):

   -34.5616 -30.3696 -26.6096 -18.7471 -12.0607 -11.7563  -6.2979  -6.2441
    -4.4951  -2.6653  -2.4335   0.9901   3.9707   8.5528  10.0823  10.1683

          k = 0.0833 0.5292 0.0000 (  4726 PWs)   bands (ev):

   -34.6941 -30.6877 -26.5310 -17.8926 -13.3473 -10.7689  -6.6457  -5.4676
    -3.8975  -2.4625  -1.9933  -0.3834   4.3252   6.9114  11.3236  11.4338

          k = 0.1667 0.2887 0.0000 (  4706 PWs)   bands (ev):

   -34.2335 -29.9299 -26.5091 -19.8599 -13.2008  -9.8040  -7.7821  -7.3707
    -6.2095  -1.8631  -1.6465   3.6973   3.7451   7.5414   8.3952   8.4125

          k = 0.1667 0.3849 0.0000 (  4727 PWs)   bands (ev):

   -34.4030 -30.7921 -26.0289 -18.9622 -12.5342 -11.2486  -7.5049  -6.5861
    -4.7456  -2.2380  -1.5541   1.4692   4.6373   8.3614   9.7128   9.8291

          k = 0.1667 0.4811 0.0000 (  4736 PWs)   bands (ev):

   -34.4865 -31.3948 -25.7072 -18.0134 -12.6464 -11.6705  -8.2317  -5.5363
    -4.3043  -1.5296  -1.3773   0.4041   5.3327   7.7471  10.8837  11.0897

          k = 0.1667 0.5774 0.0000 (  4744 PWs)   bands (ev):

   -34.5074 -31.6126 -25.5963 -17.5143 -13.3170 -11.1991  -8.4598  -5.4163
    -4.3194  -1.7623  -1.3188   1.3894   5.5763   6.5905  11.2466  11.5267

          k = 0.2500 0.4330 0.0000 (  4736 PWs)   bands (ev):

   -34.3586 -31.7225 -25.3322 -18.0679 -12.1608 -12.1093  -9.0224  -5.5462
    -4.4581  -1.3341  -1.0063   0.7073   6.1422   8.2790  10.2842  10.9006

          k = 0.2500 0.5292 0.0000 (  4754 PWs)   bands (ev):

   -34.2426 -32.3172 -24.9228 -17.3364 -12.9041 -11.6900  -9.8100  -5.3600
    -4.6142  -1.8750  -0.7391   3.1525   7.2070   7.2812  10.5133  10.8044

          k = 0.3333 0.5774 0.0000 (  4740 PWs)   bands (ev):

   -34.0391 -32.7603 -24.6127 -17.0425 -12.9187 -11.7072 -10.4860  -5.6748
    -4.3020  -2.2748  -0.5339   5.7828   7.0468   8.5841   8.6207   9.9445

     the Fermi energy is     3.4587 ev

!    total energy              =     -48.24219024 Ry
     estimated scf accuracy    <          4.9E-09 Ry
     smearing contrib. (-TS)   =      -0.00033730 Ry
     internal energy E=F+TS    =     -48.24185294 Ry

     The total energy is F=E-TS. E is the sum of the following terms:
     one-electron contribution =   -1339.44923136 Ry
     hartree contribution      =     676.95934428 Ry
     xc contribution           =     -32.41687050 Ry
     ewald contribution        =     646.66490464 Ry

     convergence has been achieved in  26 iterations

     negative rho (up, down):  1.003E-03 0.000E+00

     Forces acting on atoms (cartesian axes, Ry/au):

     atom    1 type  1   force =     0.00000000   -0.00000000  -21.41649295
     atom    2 type  1   force =     0.00000000   -0.00000000   -2.74888773
     atom    3 type  1   force =     0.00000000   -0.00000000    0.00000832
     atom    4 type  1   force =     0.00000000    0.00000000    0.00001310
     atom    5 type  1   force =     0.00000000   -0.00000000   21.41646308
     atom    6 type  1   force =     0.00000000    0.00000000    2.74889618

     Total force =    30.535944     Total SCF correction =     0.000168


     Computing stress (Cartesian axis) and pressure


     negative rho (up, down):  1.003E-03 0.000E+00
          total   stress  (Ry/bohr**3)                   (kbar)     P=     5833.52
   0.01670197   0.00000000  -0.00000000         2456.94        0.00       -0.00
   0.00000000   0.01670197   0.00000000            0.00     2456.94        0.00
  -0.00000000   0.00000000   0.08556241           -0.00        0.00    12586.66


     Writing all to output data dir /run/media/rfa/SATA/Skripsi/DFT/Graphene-copy/tmp/gr-ab-3L.save/ :
     XML data file, charge density, pseudopotentials, collected wavefunctions

     init_run     :      0.68s CPU      0.76s WALL (       1 calls)
     electrons    :     48.63s CPU     26.18s WALL (       1 calls)
     forces       :      0.16s CPU      0.09s WALL (       1 calls)
     stress       :      0.52s CPU      0.30s WALL (       1 calls)

     Called by init_run:
     wfcinit      :      0.39s CPU      0.24s WALL (       1 calls)
     potinit      :      0.01s CPU      0.01s WALL (       1 calls)
     hinit0       :      0.25s CPU      0.47s WALL (       1 calls)

     Called by electrons:
     c_bands      :     43.48s CPU     23.25s WALL (      26 calls)
     sum_band     :      4.46s CPU      2.38s WALL (      26 calls)
     v_of_rho     :      0.21s CPU      0.21s WALL (      27 calls)
     newd         :      0.24s CPU      0.20s WALL (      27 calls)
     mix_rho      :      0.20s CPU      0.12s WALL (      26 calls)

     Called by c_bands:
     init_us_2    :      0.97s CPU      0.49s WALL (    1045 calls)
     cegterg      :     42.13s CPU     22.48s WALL (     494 calls)

     Called by *egterg:
     cdiaghg      :      3.04s CPU      1.56s WALL (    3945 calls)
     h_psi        :     30.94s CPU     16.75s WALL (    3964 calls)
     s_psi        :      1.11s CPU      0.58s WALL (    3964 calls)
     g_psi        :      0.28s CPU      0.16s WALL (    3451 calls)

     Called by h_psi:
     h_psi:calbec :      3.78s CPU      2.10s WALL (    3964 calls)
     vloc_psi     :     24.74s CPU     13.39s WALL (    3964 calls)
     add_vuspsi   :      2.02s CPU      1.03s WALL (    3964 calls)

     General routines
     calbec       :      4.48s CPU      2.44s WALL (    4781 calls)
     fft          :      0.31s CPU      0.53s WALL (     322 calls)
     ffts         :      0.01s CPU      0.01s WALL (      26 calls)
     fftw         :     23.56s CPU     12.82s WALL (   74108 calls)

     Parallel routines

     PWSCF        :     50.09s CPU     27.75s WALL


   This run was terminated on:  15:11:10  16Apr2025            

=------------------------------------------------------------------------------=
   JOB DONE.
=------------------------------------------------------------------------------=
