
     Program PWSCF v.7.4.1 starts on 19Mar2025 at 10:26: 0 

     This program is part of the open-source Quantum ESPRESSO suite
     for quantum simulation of materials; please cite
         "P. Giannozzi et al., J. Phys.:Condens. Matter 21 395502 (2009);
         "P. Giannozzi et al., J. Phys.:Condens. Matter 29 465901 (2017);
         "P. Giannozzi et al., J. Chem. Phys. 152 154105 (2020);
          URL http://www.quantum-espresso.org", 
     in publications or presentations arising from this work. More details at
     http://www.quantum-espresso.org/quote

     Parallel version (MPI), running on     7 processors

     MPI processes distributed on     1 nodes
     10785 MiB available memory on the printing compute node when the environment starts

     Waiting for input...
     Reading input from standard input

     Current dimensions of program PWSCF are:
     Max number of different atomic species (ntypx) = 10
     Max number of k-points (npk) =  40000
     Max angular momentum in pseudopotentials (lmaxx) =  4

     R & G space division:  proc/nbgrp/npool/nimage =       7
     Subspace diagonalization in iterative solution of the eigenvalue problem:
     a serial algorithm will be used


     Parallelization info
     --------------------
     sticks:   dense  smooth     PW     G-vecs:    dense   smooth      PW
     Min          51      51     15                 4783     4783     815
     Max          52      52     16                 4800     4800     838
     Sum         361     361    109                33523    33523    5791

     Using Slab Decomposition



     bravais-lattice index     =            4
     lattice parameter (alat)  =       4.6561  a.u.
     unit-cell volume          =     532.1899 (a.u.)^3
     number of atoms/cell      =            2
     number of atomic types    =            1
     number of electrons       =         8.00
     number of Kohn-Sham states=            8
     kinetic-energy cutoff     =      60.0000  Ry
     charge density cutoff     =     240.0000  Ry
     scf convergence threshold =      1.0E-06
     mixing beta               =       0.7000
     number of iterations used =            8  plain     mixing
     Exchange-correlation= PBE
                           (   1   4   3   4   0   0   0)

     celldm(1)=   4.656107  celldm(2)=   0.000000  celldm(3)=   6.087896
     celldm(4)=   0.000000  celldm(5)=   0.000000  celldm(6)=   0.000000

     crystal axes: (cart. coord. in units of alat)
               a(1) = (   1.000000   0.000000   0.000000 )  
               a(2) = (  -0.500000   0.866025   0.000000 )  
               a(3) = (   0.000000   0.000000   6.087896 )  

     reciprocal axes: (cart. coord. in units 2 pi/alat)
               b(1) = (  1.000000  0.577350 -0.000000 )  
               b(2) = (  0.000000  1.154701  0.000000 )  
               b(3) = (  0.000000 -0.000000  0.164260 )  


     PseudoPot. # 1 for C  read from file:
     ../../../pseudo/C.pbe-n-rrkjus_psl.0.1.UPF
     MD5 check sum: 96a6a315177d77e6c95bf6fd3870f9e3
     Pseudo is Ultrasoft + core correction, Zval =  4.0
     Generated using &quot;atomic&quot; code by A. Dal Corso  v.6.3MaX
     Using radial grid of 1073 points,  4 beta functions with: 
                l(1) =   0
                l(2) =   0
                l(3) =   1
                l(4) =   1
     Q(r) pseudized with 0 coefficients 


     atomic species   valence    mass     pseudopotential
     C                 4.00    12.01070     C ( 1.00)

     24 Sym. Ops., with inversion, found



   Cartesian axes

     site n.     atom                  positions (alat units)
         1        C      tau(   1) = (   0.0000000   0.5773503   3.0439478  )
         2        C      tau(   2) = (   0.5000000   0.2886751   3.0439478  )

     number of k points=    19  Marzari-Vanderbilt smearing, width (Ry)=  0.0200
                       cart. coord. in units 2pi/alat
        k(    1) = (   0.0000000   0.0000000   0.0000000), wk =   0.0138889
        k(    2) = (   0.0000000   0.0962250   0.0000000), wk =   0.0833333
        k(    3) = (   0.0000000   0.1924501   0.0000000), wk =   0.0833333
        k(    4) = (   0.0000000   0.2886751   0.0000000), wk =   0.0833333
        k(    5) = (   0.0000000   0.3849002   0.0000000), wk =   0.0833333
        k(    6) = (   0.0000000   0.4811252   0.0000000), wk =   0.0833333
        k(    7) = (   0.0000000  -0.5773503   0.0000000), wk =   0.0416667
        k(    8) = (   0.0833333   0.1443376   0.0000000), wk =   0.0833333
        k(    9) = (   0.0833333   0.2405626   0.0000000), wk =   0.1666667
        k(   10) = (   0.0833333   0.3367877   0.0000000), wk =   0.1666667
        k(   11) = (   0.0833333   0.4330127   0.0000000), wk =   0.1666667
        k(   12) = (   0.0833333   0.5292377   0.0000000), wk =   0.1666667
        k(   13) = (   0.1666667   0.2886751   0.0000000), wk =   0.0833333
        k(   14) = (   0.1666667   0.3849002   0.0000000), wk =   0.1666667
        k(   15) = (   0.1666667   0.4811252   0.0000000), wk =   0.1666667
        k(   16) = (   0.1666667   0.5773503   0.0000000), wk =   0.0833333
        k(   17) = (   0.2500000   0.4330127   0.0000000), wk =   0.0833333
        k(   18) = (   0.2500000   0.5292377   0.0000000), wk =   0.1666667
        k(   19) = (   0.3333333   0.5773503   0.0000000), wk =   0.0277778

     Dense  grid:    33523 G-vectors     FFT dimensions: (  24,  24, 144)

     Estimated max dynamical RAM per process >       8.06 MB

     Estimated total dynamical RAM >      56.42 MB

     Check: negative core charge=   -0.000003

     Initial potential from superposition of free atoms

     starting charge       7.9999, renormalised to       8.0000

     negative rho (up, down):  9.023E-05 0.000E+00
     Starting wfcs are    8 randomized atomic wfcs

     total cpu time spent up to now is        0.8 secs

     per-process dynamical memory:    11.0 Mb

     Self-consistent Calculation

     iteration #  1     ecut=    60.00 Ry     beta= 0.70
     Davidson diagonalization with overlap
     ethr =  1.00E-02,  avg # of iterations =  7.2

     Threshold (ethr) on eigenvalues was too large:
     Diagonalizing with lowered threshold

     Davidson diagonalization with overlap
     ethr =  8.56E-04,  avg # of iterations =  6.3

     negative rho (up, down):  2.132E-05 0.000E+00

     total cpu time spent up to now is        1.4 secs

     total energy              =     -23.88059879 Ry
     estimated scf accuracy    <       0.19451613 Ry

     iteration #  2     ecut=    60.00 Ry     beta= 0.70
     Davidson diagonalization with overlap
     ethr =  2.43E-03,  avg # of iterations =  2.9

     negative rho (up, down):  3.473E-05 0.000E+00

     total cpu time spent up to now is        1.6 secs

     total energy              =     -23.89165439 Ry
     estimated scf accuracy    <       0.00594085 Ry

     iteration #  3     ecut=    60.00 Ry     beta= 0.70
     Davidson diagonalization with overlap
     c_bands:  1 eigenvalues not converged
     c_bands:  2 eigenvalues not converged
     c_bands:  4 eigenvalues not converged
     c_bands:  1 eigenvalues not converged
     c_bands:  1 eigenvalues not converged
     c_bands:  1 eigenvalues not converged
     c_bands:  1 eigenvalues not converged
     c_bands:  1 eigenvalues not converged
     c_bands:  1 eigenvalues not converged
     c_bands:  2 eigenvalues not converged
     c_bands:  1 eigenvalues not converged
     c_bands:  2 eigenvalues not converged
     ethr =  7.43E-05,  avg # of iterations = 18.1

     negative rho (up, down):  3.090E-05 0.000E+00

     total cpu time spent up to now is        2.5 secs

     total energy              =     -23.91494782 Ry
     estimated scf accuracy    <       0.00823479 Ry

     iteration #  4     ecut=    60.00 Ry     beta= 0.70
     Davidson diagonalization with overlap
     ethr =  7.43E-05,  avg # of iterations =  3.3

     negative rho (up, down):  5.374E-05 0.000E+00

     total cpu time spent up to now is        2.7 secs

     total energy              =     -23.91494721 Ry
     estimated scf accuracy    <       0.01215668 Ry

     iteration #  5     ecut=    60.00 Ry     beta= 0.70
     Davidson diagonalization with overlap
     ethr =  7.43E-05,  avg # of iterations =  1.2

     negative rho (up, down):  1.102E-04 0.000E+00

     total cpu time spent up to now is        2.8 secs

     total energy              =     -23.90910837 Ry
     estimated scf accuracy    <       0.01085988 Ry

     iteration #  6     ecut=    60.00 Ry     beta= 0.70
     Davidson diagonalization with overlap
     ethr =  7.43E-05,  avg # of iterations =  1.9

     negative rho (up, down):  1.089E-04 0.000E+00

     total cpu time spent up to now is        3.0 secs

     total energy              =     -23.90987851 Ry
     estimated scf accuracy    <       0.00163761 Ry

     iteration #  7     ecut=    60.00 Ry     beta= 0.70
     Davidson diagonalization with overlap
     ethr =  2.05E-05,  avg # of iterations =  3.8

     negative rho (up, down):  1.095E-04 0.000E+00

     total cpu time spent up to now is        3.3 secs

     total energy              =     -23.91019874 Ry
     estimated scf accuracy    <       0.00175648 Ry

     iteration #  8     ecut=    60.00 Ry     beta= 0.70
     Davidson diagonalization with overlap
     ethr =  2.05E-05,  avg # of iterations =  1.4

     negative rho (up, down):  1.096E-04 0.000E+00

     total cpu time spent up to now is        3.4 secs

     total energy              =     -23.91032036 Ry
     estimated scf accuracy    <       0.00184434 Ry

     iteration #  9     ecut=    60.00 Ry     beta= 0.70
     Davidson diagonalization with overlap
     ethr =  2.05E-05,  avg # of iterations =  1.2

     negative rho (up, down):  1.136E-04 0.000E+00

     total cpu time spent up to now is        3.6 secs

     total energy              =     -23.90978278 Ry
     estimated scf accuracy    <       0.00185033 Ry

     iteration # 10     ecut=    60.00 Ry     beta= 0.70
     Davidson diagonalization with overlap
     ethr =  2.05E-05,  avg # of iterations =  2.3

     negative rho (up, down):  1.140E-04 0.000E+00

     total cpu time spent up to now is        3.8 secs

     total energy              =     -23.90964807 Ry
     estimated scf accuracy    <       0.00077154 Ry

     iteration # 11     ecut=    60.00 Ry     beta= 0.70
     Davidson diagonalization with overlap
     c_bands:  1 eigenvalues not converged
     ethr =  9.64E-06,  avg # of iterations =  4.7

     negative rho (up, down):  1.194E-04 0.000E+00

     total cpu time spent up to now is        4.0 secs

     total energy              =     -23.90982600 Ry
     estimated scf accuracy    <       0.00017668 Ry

     iteration # 12     ecut=    60.00 Ry     beta= 0.70
     Davidson diagonalization with overlap
     c_bands:  1 eigenvalues not converged
     c_bands:  1 eigenvalues not converged
     c_bands:  2 eigenvalues not converged
     ethr =  2.21E-06,  avg # of iterations = 10.1

     negative rho (up, down):  1.248E-04 0.000E+00

     total cpu time spent up to now is        4.4 secs

     total energy              =     -23.91039611 Ry
     estimated scf accuracy    <       0.00020506 Ry

     iteration # 13     ecut=    60.00 Ry     beta= 0.70
     Davidson diagonalization with overlap
     ethr =  2.21E-06,  avg # of iterations =  6.6

     negative rho (up, down):  1.249E-04 0.000E+00

     total cpu time spent up to now is        4.7 secs

     total energy              =     -23.91038866 Ry
     estimated scf accuracy    <       0.00114049 Ry

     iteration # 14     ecut=    60.00 Ry     beta= 0.70
     Davidson diagonalization with overlap
     ethr =  2.21E-06,  avg # of iterations =  1.7

     negative rho (up, down):  1.236E-04 0.000E+00

     total cpu time spent up to now is        4.9 secs

     total energy              =     -23.91055056 Ry
     estimated scf accuracy    <       0.00100134 Ry

     iteration # 15     ecut=    60.00 Ry     beta= 0.70
     Davidson diagonalization with overlap
     ethr =  2.21E-06,  avg # of iterations =  1.5

     negative rho (up, down):  1.326E-04 0.000E+00

     total cpu time spent up to now is        5.1 secs

     total energy              =     -23.90965363 Ry
     estimated scf accuracy    <       0.00130073 Ry

     iteration # 16     ecut=    60.00 Ry     beta= 0.70
     Davidson diagonalization with overlap
     ethr =  2.21E-06,  avg # of iterations =  7.8

     negative rho (up, down):  1.340E-04 0.000E+00

     total cpu time spent up to now is        5.5 secs

     total energy              =     -23.91033500 Ry
     estimated scf accuracy    <       0.00051383 Ry

     iteration # 17     ecut=    60.00 Ry     beta= 0.70
     Davidson diagonalization with overlap
     ethr =  2.21E-06,  avg # of iterations =  2.2

     negative rho (up, down):  1.282E-04 0.000E+00

     total cpu time spent up to now is        5.7 secs

     total energy              =     -23.90984540 Ry
     estimated scf accuracy    <       0.00089031 Ry

     iteration # 18     ecut=    60.00 Ry     beta= 0.70
     Davidson diagonalization with overlap
     ethr =  2.21E-06,  avg # of iterations =  2.4

     negative rho (up, down):  1.284E-04 0.000E+00

     total cpu time spent up to now is        5.9 secs

     total energy              =     -23.90986424 Ry
     estimated scf accuracy    <       0.00005188 Ry

     iteration # 19     ecut=    60.00 Ry     beta= 0.70
     Davidson diagonalization with overlap
     ethr =  6.48E-07,  avg # of iterations =  4.2

     negative rho (up, down):  1.280E-04 0.000E+00

     total cpu time spent up to now is        6.2 secs

     total energy              =     -23.90993142 Ry
     estimated scf accuracy    <       0.00001004 Ry

     iteration # 20     ecut=    60.00 Ry     beta= 0.70
     Davidson diagonalization with overlap
     ethr =  1.25E-07,  avg # of iterations =  3.3

     negative rho (up, down):  1.284E-04 0.000E+00

     total cpu time spent up to now is        6.4 secs

     total energy              =     -23.90992560 Ry
     estimated scf accuracy    <       0.00003622 Ry

     iteration # 21     ecut=    60.00 Ry     beta= 0.70
     Davidson diagonalization with overlap
     ethr =  1.25E-07,  avg # of iterations =  1.2

     negative rho (up, down):  1.283E-04 0.000E+00

     total cpu time spent up to now is        6.6 secs

     total energy              =     -23.90992156 Ry
     estimated scf accuracy    <       0.00001650 Ry

     iteration # 22     ecut=    60.00 Ry     beta= 0.70
     Davidson diagonalization with overlap
     ethr =  1.25E-07,  avg # of iterations =  1.2

     negative rho (up, down):  1.278E-04 0.000E+00

     total cpu time spent up to now is        6.7 secs

     total energy              =     -23.90991720 Ry
     estimated scf accuracy    <       0.00000824 Ry

     iteration # 23     ecut=    60.00 Ry     beta= 0.70
     Davidson diagonalization with overlap
     ethr =  1.03E-07,  avg # of iterations =  2.0

     negative rho (up, down):  1.269E-04 0.000E+00

     total cpu time spent up to now is        6.9 secs

     End of self-consistent calculation

          k = 0.0000 0.0000 0.0000 (  4149 PWs)   bands (ev):

   -21.2483  -9.3506  -4.7896  -4.7896   1.4144   2.2359   2.4908   4.4658

          k = 0.0000 0.0962 0.0000 (  4170 PWs)   bands (ev):

   -21.0844  -9.1544  -5.4385  -5.1281   1.6388   2.4618   2.7173   4.6889

          k = 0.0000 0.1925 0.0000 (  4194 PWs)   bands (ev):

   -20.5944  -8.5709  -7.0729  -5.9206   2.3118   3.1385   3.3969   5.3565

          k = 0.0000 0.2887 0.0000 (  4186 PWs)   bands (ev):

   -19.7841  -9.1685  -7.6195  -6.8006   3.4314   4.2516   4.5287   5.5393

          k = 0.0000 0.3849 0.0000 (  4180 PWs)   bands (ev):

   -18.6655 -11.3701  -7.5342  -6.3503   3.1994   4.9881   5.9722   6.1649

          k = 0.0000 0.4811 0.0000 (  4172 PWs)   bands (ev):

   -17.2694 -13.4697  -8.0072  -4.9265   1.0622   5.7622   7.0079   7.8616

          k = 0.0000-0.5774 0.0000 (  4184 PWs)   bands (ev):

   -16.0028 -14.9788  -8.1696  -4.0811  -0.0367   5.6845   9.3379   9.4729

          k = 0.0833 0.1443 0.0000 (  4169 PWs)   bands (ev):

   -20.7574  -8.7644  -6.4699  -5.8053   2.0876   2.9133   3.1705   5.1346

          k = 0.0833 0.2406 0.0000 (  4180 PWs)   bands (ev):

   -20.1073  -8.1768  -7.9958  -6.8032   2.9847   3.8128   4.0770   6.0105

          k = 0.0833 0.3368 0.0000 (  4175 PWs)   bands (ev):

   -19.1427 -10.2478  -7.6894  -6.8790   4.2112   4.3261   5.1838   5.4348

          k = 0.0833 0.4330 0.0000 (  4187 PWs)   bands (ev):

   -17.8823 -12.3695  -8.3242  -5.4984   2.0103   6.0904   6.6040   6.9555

          k = 0.0833 0.5292 0.0000 (  4195 PWs)   bands (ev):

   -16.4018 -14.3115  -8.6526  -4.1880   0.2399   6.4209   8.3169   9.1360

          k = 0.1667 0.2887 0.0000 (  4170 PWs)   bands (ev):

   -19.3029  -9.5046  -8.1649  -7.0579   4.1042   4.6701   4.9316   5.2103

          k = 0.1667 0.3849 0.0000 (  4172 PWs)   bands (ev):

   -18.1951 -11.2306  -9.2206  -5.8039   2.7203   5.6634   6.4789   6.7937

          k = 0.1667 0.4811 0.0000 (  4170 PWs)   bands (ev):

   -16.8189 -13.1413  -9.7959  -4.3760   0.8061   7.6386   8.3234   8.3877

          k = 0.1667 0.5774 0.0000 (  4178 PWs)   bands (ev):

   -15.5820 -14.5787  -9.9806  -3.4826  -0.2631   8.2259   9.8780   9.9109

          k = 0.2500 0.4330 0.0000 (  4156 PWs)   bands (ev):

   -16.9668 -12.2636 -10.7046  -4.4602   1.1043   7.4258   8.1060   8.5980

          k = 0.2500 0.5292 0.0000 (  4161 PWs)   bands (ev):

   -15.5438 -13.6856 -11.4116  -3.0733  -0.4172   9.1528   9.5440  10.4808

          k = 0.3333 0.5774 0.0000 (  4152 PWs)   bands (ev):

   -14.3257 -14.3257 -12.3106  -1.7162  -1.7162   8.9008  11.1593  11.1594

     the Fermi energy is    -1.6783 ev

!    total energy              =     -23.90991809 Ry
     estimated scf accuracy    <       0.00000043 Ry
     smearing contrib. (-TS)   =      -0.00018232 Ry
     internal energy E=F+TS    =     -23.90973576 Ry

     The total energy is F=E-TS. E is the sum of the following terms:
     one-electron contribution =    -157.40153670 Ry
     hartree contribution      =      80.16628836 Ry
     xc contribution           =      -8.30413454 Ry
     ewald contribution        =      61.62964711 Ry

     convergence has been achieved in  23 iterations

     Writing all to output data dir ../../../tmp/gr-1L.save/ :
     XML data file, charge density, pseudopotentials, collected wavefunctions

     init_run     :      0.47s CPU      0.72s WALL (       1 calls)
     electrons    :     10.54s CPU      6.15s WALL (       1 calls)

     Called by init_run:
     wfcinit      :      0.11s CPU      0.07s WALL (       1 calls)
     potinit      :      0.01s CPU      0.01s WALL (       1 calls)
     hinit0       :      0.33s CPU      0.62s WALL (       1 calls)

     Called by electrons:
     c_bands      :      8.69s CPU      4.98s WALL (      24 calls)
     sum_band     :      1.43s CPU      0.81s WALL (      24 calls)
     v_of_rho     :      0.13s CPU      0.13s WALL (      24 calls)
     newd         :      0.14s CPU      0.13s WALL (      24 calls)
     mix_rho      :      0.12s CPU      0.07s WALL (      24 calls)

     Called by c_bands:
     init_us_2    :      0.17s CPU      0.10s WALL (     931 calls)
     cegterg      :      8.41s CPU      4.81s WALL (     456 calls)

     Called by *egterg:
     cdiaghg      :      0.47s CPU      0.28s WALL (    2310 calls)
     h_psi        :      6.80s CPU      3.90s WALL (    2348 calls)
     s_psi        :      0.12s CPU      0.06s WALL (    2348 calls)
     g_psi        :      0.07s CPU      0.03s WALL (    1873 calls)

     Called by h_psi:
     h_psi:calbec :      0.45s CPU      0.26s WALL (    2348 calls)
     vloc_psi     :      6.10s CPU      3.49s WALL (    2348 calls)
     add_vuspsi   :      0.17s CPU      0.09s WALL (    2348 calls)

     General routines
     calbec       :      0.49s CPU      0.28s WALL (    2804 calls)
     fft          :      0.38s CPU      0.66s WALL (     265 calls)
     ffts         :      0.01s CPU      0.00s WALL (      24 calls)
     fftw         :      6.05s CPU      3.45s WALL (   26876 calls)

     Parallel routines

     PWSCF        :     11.07s CPU      6.96s WALL


   This run was terminated on:  10:26: 7  19Mar2025            

=------------------------------------------------------------------------------=
   JOB DONE.
=------------------------------------------------------------------------------=
