
     Program BANDS v.7.4.1 starts on 19Mar2025 at  4:28:25 

     This program is part of the open-source Quantum ESPRESSO suite
     for quantum simulation of materials; please cite
         "P. Giannozzi et al., J. Phys.:Condens. Matter 21 395502 (2009);
         "P. Giannozzi et al., J. Phys.:Condens. Matter 29 465901 (2017);
         "P. Giannozzi et al., J. Chem. Phys. 152 154105 (2020);
          URL http://www.quantum-espresso.org", 
     in publications or presentations arising from this work. More details at
     http://www.quantum-espresso.org/quote

     Parallel version (MPI), running on     7 processors

     MPI processes distributed on     1 nodes
     R & G space division:  proc/nbgrp/npool/nimage =       7
     3384 MiB available memory on the printing compute node when the environment starts


     Reading xml data from directory:

     ../../../../tmp/gr-aa-2L.save/

     IMPORTANT: XC functional enforced from input :
     Exchange-correlation= PBE
                           (   1   4   3   4   0   0   0)
     Any further DFT definition will be discarded
     Please, verify this is what you really want


     Parallelization info
     --------------------
     sticks:   dense  smooth     PW     G-vecs:    dense   smooth      PW
     Min          51      51     15                 4783     4783     815
     Max          52      52     16                 4800     4800     838
     Sum         361     361    109                33523    33523    5791

     Using Slab Decomposition


     Check: negative core charge=   -0.000004

     negative rho (up, down):  1.056E-03 0.000E+00
     Reading collected, re-writing distributed wavefunctions
     high-symmetry point:  0.0000 0.0000 0.0000   x coordinate   0.0000
     high-symmetry point:  0.6667 0.0000 0.0000   x coordinate   0.6667
     high-symmetry point:  0.5000 0.2887 0.0000   x coordinate   1.0000
     high-symmetry point:  0.0000 0.0000 0.0000   x coordinate   1.5774

     Plottable bands (eV) written to file gr-aa-2L.bands.gnu
     Bands written to file gr-aa-2L.bands

 **************************************************************************

                    xk=(   0.00000,   0.00000,   0.00000  )

     point group C_6v (6mm) 
     there are  6 classes
     the character table:

       E     2C6   2C3   C2    3s_v  3s_d 
A_1    1.00  1.00  1.00  1.00  1.00  1.00
A_2    1.00  1.00  1.00  1.00 -1.00 -1.00
B_1    1.00 -1.00  1.00 -1.00  1.00 -1.00
B_2    1.00 -1.00  1.00 -1.00 -1.00  1.00
E_1    2.00  1.00 -1.00 -2.00  0.00  0.00
E_2    2.00 -1.00 -1.00  2.00  0.00  0.00

     the symmetry operations in each class and the name of the first element:

     E        1
                                                                 
     2C6      3    4
                                                                 
     2C3      5    6
                                                                 
     C2       2
                                                                 
     3s_v     8   12   11
                                                                 
     3s_d     7    9   10
                                                                 

     Band symmetry, C_6v (6mm)  point group:

     e(  1 -  1) =    -24.51887  eV     1   --> A_1            
     e(  2 -  3) =    -23.68500  eV     2   --> E_2            
     e(  4 -  4) =    -16.25589  eV     1   --> A_1            
     e(  5 -  6) =    -10.99198  eV     2   --> E_1            
     e(  7 -  7) =     -5.16852  eV     1   --> A_1            
     e(  8 -  8) =      2.74062  eV     1   --> B_1            
     e(  9 -  9) =      3.37352  eV     1   --> A_1            
     e( 10 - 10) =      3.46871  eV     1   --> A_1            
     e( 11 - 11) =      4.73457  eV     1   --> A_1            
     e( 12 - 12) =      5.61551  eV     1   --> A_1            
     e( 13 - 13) =      5.74598  eV     1   --> B_1            
     e( 14 - 14) =      7.94493  eV     1   --> A_1            
     e( 15 - 15) =      9.49015  eV     1   --> A_1            
     e( 16 - 16) =     11.84877  eV     1   -->   ?

 **************************************************************************

 **************************************************************************

                    xk=(   0.01667,   0.00000,   0.00000  )

     point group C_s (m)    
     there are  2 classes
     the character table:

       E     s    
A'     1.00  1.00
A''    1.00 -1.00

     the symmetry operations in each class and the name of the first element:

     E        1
                                                                 
     s        2
                                                                 

     Band symmetry, C_s (m)     point group:

     e(  1 -  1) =    -24.52136  eV     1   --> A'             
     e(  2 -  2) =    -23.69109  eV     1   --> A'             
     e(  3 -  3) =    -23.68867  eV     1   --> A''            
     e(  4 -  4) =    -16.25038  eV     1   --> A'             
     e(  5 -  5) =    -10.97884  eV     1   --> A''            
     e(  6 -  6) =    -10.97378  eV     1   --> A'             
     e(  7 -  7) =     -5.16369  eV     1   --> A'             
     e(  8 -  8) =      2.71442  eV     1   --> A''            
     e(  9 -  9) =      3.38022  eV     1   --> A'             
     e( 10 - 10) =      3.47549  eV     1   --> A'             
     e( 11 - 11) =      4.74117  eV     1   --> A'             
     e( 12 - 12) =      5.62219  eV     1   --> A'             
     e( 13 - 13) =      5.74142  eV     1   --> A''            
     e( 14 - 14) =      7.95139  eV     1   --> A'             
     e( 15 - 15) =      9.49653  eV     1   --> A'             
     e( 16 - 16) =     11.83468  eV     1   -->   ?

 **************************************************************************

 **************************************************************************

                    xk=(   0.03333,   0.00000,   0.00000  )

     Band symmetry, C_s (m)     point group:

     e(  1 -  1) =    -24.52923  eV     1   --> A'             
     e(  2 -  2) =    -23.70945  eV     1   --> A'             
     e(  3 -  3) =    -23.70116  eV     1   --> A''            
     e(  4 -  4) =    -16.23390  eV     1   --> A'             
     e(  5 -  5) =    -10.93938  eV     1   --> A''            
     e(  6 -  6) =    -10.92069  eV     1   --> A'             
     e(  7 -  7) =     -5.14930  eV     1   --> A'             
     e(  8 -  8) =      2.63824  eV     1   --> A''            
     e(  9 -  9) =      3.40032  eV     1   --> A'             
     e( 10 - 10) =      3.49584  eV     1   --> A'             
     e( 11 - 11) =      4.76096  eV     1   --> A'             
     e( 12 - 12) =      5.64220  eV     1   --> A'             
     e( 13 - 13) =      5.72751  eV     1   --> A''            
     e( 14 - 14) =      7.97075  eV     1   --> A'             
     e( 15 - 15) =      9.51566  eV     1   --> A'             
     e( 16 - 16) =     11.79185  eV     1   -->   ?

 **************************************************************************

 **************************************************************************

                    xk=(   0.05000,   0.00000,   0.00000  )

     Band symmetry, C_s (m)     point group:

     e(  1 -  1) =    -24.54366  eV     1   --> A'             
     e(  2 -  2) =    -23.73794  eV     1   --> A'             
     e(  3 -  3) =    -23.72192  eV     1   --> A''            
     e(  4 -  4) =    -16.20776  eV     1   --> A'             
     e(  5 -  5) =    -10.87473  eV     1   --> A''            
     e(  6 -  6) =    -10.83376  eV     1   --> A'             
     e(  7 -  7) =     -5.12539  eV     1   --> A'             
     e(  8 -  8) =      2.51435  eV     1   --> A''            
     e(  9 -  9) =      3.43366  eV     1   --> A'             
     e( 10 - 10) =      3.52976  eV     1   --> A'             
     e( 11 - 11) =      4.79394  eV     1   --> A'             
     e( 12 - 12) =      5.67539  eV     1   --> A'             
     e( 13 - 13) =      5.70438  eV     1   --> A''            
     e( 14 - 14) =      8.00299  eV     1   --> A'             
     e( 15 - 15) =      9.54711  eV     1   --> A'             
     e( 16 - 16) =     11.72041  eV     1   --> A'             

 **************************************************************************

 **************************************************************************

                    xk=(   0.06667,   0.00000,   0.00000  )

     Band symmetry, C_s (m)     point group:

     e(  1 -  1) =    -24.56648  eV     1   --> A'             
     e(  2 -  2) =    -23.77392  eV     1   --> A'             
     e(  3 -  3) =    -23.74969  eV     1   --> A''            
     e(  4 -  4) =    -16.17034  eV     1   --> A'             
     e(  5 -  5) =    -10.78481  eV     1   --> A''            
     e(  6 -  6) =    -10.71267  eV     1   --> A'             
     e(  7 -  7) =     -5.09190  eV     1   --> A'             
     e(  8 -  8) =      2.34540  eV     1   --> A''            
     e(  9 -  9) =      3.48041  eV     1   --> A'             
     e( 10 - 10) =      3.57724  eV     1   --> A'             
     e( 11 - 11) =      4.84011  eV     1   --> A'             
     e( 12 - 12) =      5.67208  eV     1   --> A''            
     e( 13 - 13) =      5.72192  eV     1   --> A'             
     e( 14 - 14) =      8.04811  eV     1   --> A'             
     e( 15 - 15) =      9.59095  eV     1   --> A'             
     e( 16 - 16) =     11.62009  eV     1   --> A'             

 **************************************************************************

 **************************************************************************

                    xk=(   0.08333,   0.00000,   0.00000  )

     Band symmetry, C_s (m)     point group:

     e(  1 -  1) =    -24.60031  eV     1   --> A'             
     e(  2 -  2) =    -23.81351  eV     1   --> A'             
     e(  3 -  3) =    -23.78423  eV     1   --> A''            
     e(  4 -  4) =    -16.12227  eV     1   --> A'             
     e(  5 -  5) =    -10.67046  eV     1   --> A''            
     e(  6 -  6) =    -10.55942  eV     1   --> A'             
     e(  7 -  7) =     -5.04890  eV     1   --> A'             
     e(  8 -  8) =      2.13615  eV     1   --> A''            
     e(  9 -  9) =      3.54047  eV     1   --> A'             
     e( 10 - 10) =      3.63827  eV     1   --> A'             
     e( 11 - 11) =      4.89946  eV     1   --> A'             
     e( 12 - 12) =      5.63059  eV     1   --> A''            
     e( 13 - 13) =      5.78166  eV     1   --> A'             
     e( 14 - 14) =      8.10608  eV     1   --> A'             
     e( 15 - 15) =      9.64654  eV     1   --> A'             
     e( 16 - 16) =     11.49117  eV     1   --> A'             

 **************************************************************************

 **************************************************************************

                    xk=(   0.10000,   0.00000,   0.00000  )

     Band symmetry, C_s (m)     point group:

     e(  1 -  1) =    -24.64805  eV     1   --> A'             
     e(  2 -  2) =    -23.85235  eV     1   --> A'             
     e(  3 -  3) =    -23.82500  eV     1   --> A''            
     e(  4 -  4) =    -16.06358  eV     1   --> A'             
     e(  5 -  5) =    -10.53256  eV     1   --> A''            
     e(  6 -  6) =    -10.37569  eV     1   --> A'             
     e(  7 -  7) =     -4.99642  eV     1   --> A'             
     e(  8 -  8) =      1.89141  eV     1   --> A''            
     e(  9 -  9) =      3.61381  eV     1   --> A'             
     e( 10 - 10) =      3.71286  eV     1   --> A'             
     e( 11 - 11) =      4.97198  eV     1   --> A'             
     e( 12 - 12) =      5.57991  eV     1   --> A''            
     e( 13 - 13) =      5.85455  eV     1   --> A'             
     e( 14 - 14) =      8.17687  eV     1   --> A'             
     e( 15 - 15) =      9.71288  eV     1   --> A'             
     e( 16 - 16) =     11.33478  eV     1   --> A'             

 **************************************************************************

 **************************************************************************

                    xk=(   0.11667,   0.00000,   0.00000  )

     Band symmetry, C_s (m)     point group:

     e(  1 -  1) =    -24.71227  eV     1   --> A'             
     e(  2 -  2) =    -23.88628  eV     1   --> A'             
     e(  3 -  3) =    -23.87143  eV     1   --> A''            
     e(  4 -  4) =    -15.99495  eV     1   --> A'             
     e(  5 -  5) =    -10.37216  eV     1   --> A''            
     e(  6 -  6) =    -10.16369  eV     1   --> A'             
     e(  7 -  7) =     -4.93453  eV     1   --> A'             
     e(  8 -  8) =      1.61414  eV     1   --> A''            
     e(  9 -  9) =      3.70028  eV     1   --> A'             
     e( 10 - 10) =      3.80099  eV     1   --> A'             
     e( 11 - 11) =      5.05764  eV     1   --> A'             
     e( 12 - 12) =      5.52009  eV     1   --> A''            
     e( 13 - 13) =      5.94040  eV     1   --> A'             
     e( 14 - 14) =      8.26043  eV     1   --> A'             
     e( 15 - 15) =      9.78778  eV     1   --> A'             
     e( 16 - 16) =     11.15368  eV     1   --> A'             

 **************************************************************************

 **************************************************************************

                    xk=(   0.13333,   0.00000,   0.00000  )

     Band symmetry, C_s (m)     point group:

     e(  1 -  1) =    -24.79428  eV     1   --> A'             
     e(  2 -  2) =    -23.92221  eV     1   --> A''            
     e(  3 -  3) =    -23.91248  eV     1   --> A'             
     e(  4 -  4) =    -15.91519  eV     1   --> A'             
     e(  5 -  5) =    -10.19052  eV     1   --> A''            
     e(  6 -  6) =     -9.92498  eV     1   --> A'             
     e(  7 -  7) =     -4.86324  eV     1   --> A'             
     e(  8 -  8) =      1.31266  eV     1   --> A''            
     e(  9 -  9) =      3.79997  eV     1   --> A'             
     e( 10 - 10) =      3.90267  eV     1   --> A'             
     e( 11 - 11) =      5.15644  eV     1   --> A'             
     e( 12 - 12) =      5.45116  eV     1   --> A''            
     e( 13 - 13) =      6.03923  eV     1   --> A'             
     e( 14 - 14) =      8.35669  eV     1   --> A'             
     e( 15 - 15) =      9.86680  eV     1   --> A'             
     e( 16 - 16) =     10.95403  eV     1   --> A'             

 **************************************************************************

 **************************************************************************

                    xk=(   0.15000,   0.00000,   0.00000  )

     Band symmetry, C_s (m)     point group:

     e(  1 -  1) =    -24.89377  eV     1   --> A'             
     e(  2 -  2) =    -23.97673  eV     1   --> A''            
     e(  3 -  3) =    -23.92958  eV     1   --> A'             
     e(  4 -  4) =    -15.82502  eV     1   --> A'             
     e(  5 -  5) =     -9.98898  eV     1   --> A''            
     e(  6 -  6) =     -9.66208  eV     1   --> A'             
     e(  7 -  7) =     -4.78270  eV     1   --> A'             
     e(  8 -  8) =      0.98947  eV     1   --> A''            
     e(  9 -  9) =      3.91271  eV     1   --> A'             
     e( 10 - 10) =      4.01786  eV     1   --> A'             
     e( 11 - 11) =      5.26834  eV     1   --> A'             
     e( 12 - 12) =      5.37319  eV     1   --> A''            
     e( 13 - 13) =      6.15073  eV     1   --> A'             
     e( 14 - 14) =      8.46556  eV     1   --> A'             
     e( 15 - 15) =      9.93678  eV     1   --> A'             
     e( 16 - 16) =     10.75103  eV     1   --> A'             

 **************************************************************************

 **************************************************************************

                    xk=(   0.16667,   0.00000,   0.00000  )

     Band symmetry, C_s (m)     point group:

     e(  1 -  1) =    -25.00884  eV     1   --> A'             
     e(  2 -  2) =    -24.03368  eV     1   --> A''            
     e(  3 -  3) =    -23.93774  eV     1   --> A'             
     e(  4 -  4) =    -15.72453  eV     1   --> A'             
     e(  5 -  5) =     -9.76875  eV     1   --> A''            
     e(  6 -  6) =     -9.37705  eV     1   --> A'             
     e(  7 -  7) =     -4.69285  eV     1   --> A'             
     e(  8 -  8) =      0.64923  eV     1   --> A''            
     e(  9 -  9) =      4.03833  eV     1   --> A'             
     e( 10 - 10) =      4.14657  eV     1   --> A'             
     e( 11 - 11) =      5.28630  eV     1   --> A''            
     e( 12 - 12) =      5.39332  eV     1   --> A'             
     e( 13 - 13) =      6.27458  eV     1   --> A'             
     e( 14 - 14) =      8.58694  eV     1   --> A'             
     e( 15 - 15) =      9.95848  eV     1   --> A'             
     e( 16 - 16) =     10.58683  eV     1   --> A'             

 **************************************************************************

 **************************************************************************

                    xk=(   0.18333,   0.00000,   0.00000  )

     Band symmetry, C_s (m)     point group:

     e(  1 -  1) =    -25.13700  eV     1   --> A'             
     e(  2 -  2) =    -24.09285  eV     1   --> A''            
     e(  3 -  3) =    -23.93809  eV     1   --> A'             
     e(  4 -  4) =    -15.61377  eV     1   --> A'             
     e(  5 -  5) =     -9.53119  eV     1   --> A''            
     e(  6 -  6) =     -9.07154  eV     1   --> A'             
     e(  7 -  7) =     -4.59381  eV     1   --> A'             
     e(  8 -  8) =      0.29237  eV     1   --> A''            
     e(  9 -  9) =      4.17666  eV     1   --> A'             
     e( 10 - 10) =      4.28878  eV     1   --> A'             
     e( 11 - 11) =      5.19055  eV     1   --> A''            
     e( 12 - 12) =      5.53134  eV     1   --> A'             
     e( 13 - 13) =      6.41025  eV     1   --> A'             
     e( 14 - 14) =      8.72066  eV     1   --> A'             
     e( 15 - 15) =      9.85842  eV     1   --> A'             
     e( 16 - 16) =     10.53848  eV     1   --> A'             

 **************************************************************************

 **************************************************************************

                    xk=(   0.20000,   0.00000,   0.00000  )

     Band symmetry, C_s (m)     point group:

     e(  1 -  1) =    -25.27566  eV     1   --> A'             
     e(  2 -  2) =    -24.15322  eV     1   --> A''            
     e(  3 -  3) =    -23.93211  eV     1   --> A'             
     e(  4 -  4) =    -15.49266  eV     1   --> A'             
     e(  5 -  5) =     -9.27797  eV     1   --> A''            
     e(  6 -  6) =     -8.74827  eV     1   --> A'             
     e(  7 -  7) =     -4.48576  eV     1   --> A'             
     e(  8 -  8) =     -0.07295  eV     1   --> A''            
     e(  9 -  9) =      4.32744  eV     1   --> A'             
     e( 10 - 10) =      4.44446  eV     1   --> A'             
     e( 11 - 11) =      5.08600  eV     1   --> A''            
     e( 12 - 12) =      5.68233  eV     1   --> A'             
     e( 13 - 13) =      6.55692  eV     1   --> A'             
     e( 14 - 14) =      8.86651  eV     1   --> A'             
     e( 15 - 15) =      9.63771  eV     1   --> A'             
     e( 16 - 16) =     10.60934  eV     1   --> A'             

 **************************************************************************

 **************************************************************************

                    xk=(   0.21667,   0.00000,   0.00000  )

     Band symmetry, C_s (m)     point group:

     e(  1 -  1) =    -25.42165  eV     1   --> A'             
     e(  2 -  2) =    -24.21321  eV     1   --> A''            
     e(  3 -  3) =    -23.92089  eV     1   --> A'             
     e(  4 -  4) =    -15.36106  eV     1   --> A'             
     e(  5 -  5) =     -9.01039  eV     1   --> A''            
     e(  6 -  6) =     -8.40879  eV     1   --> A'             
     e(  7 -  7) =     -4.36854  eV     1   --> A'             
     e(  8 -  8) =     -0.44813  eV     1   --> A''            
     e(  9 -  9) =      4.49025  eV     1   --> A'             
     e( 10 - 10) =      4.61359  eV     1   --> A'             
     e( 11 - 11) =      4.97297  eV     1   --> A''            
     e( 12 - 12) =      5.84624  eV     1   --> A'             
     e( 13 - 13) =      6.71306  eV     1   --> A'             
     e( 14 - 14) =      9.02418  eV     1   --> A'             
     e( 15 - 15) =      9.36037  eV     1   --> A'             
     e( 16 - 16) =     10.74067  eV     1   --> A'             

 **************************************************************************

 **************************************************************************

                    xk=(   0.23333,   0.00000,   0.00000  )

     Band symmetry, C_s (m)     point group:

     e(  1 -  1) =    -25.57318  eV     1   --> A'             
     e(  2 -  2) =    -24.27257  eV     1   --> A''            
     e(  3 -  3) =    -23.90564  eV     1   --> A'             
     e(  4 -  4) =    -15.21999  eV     1   --> A'             
     e(  5 -  5) =     -8.72968  eV     1   --> A''            
     e(  6 -  6) =     -8.05509  eV     1   --> A'             
     e(  7 -  7) =     -4.24232  eV     1   --> A'             
     e(  8 -  8) =     -0.82779  eV     1   --> A''            
     e(  9 -  9) =      4.66435  eV     1   --> A'             
     e( 10 - 10) =      4.79613  eV     1   --> A'             
     e( 11 - 11) =      4.85161  eV     1   --> A''            
     e( 12 - 12) =      6.02296  eV     1   --> A'             
     e( 13 - 13) =      6.87562  eV     1   --> A'             
     e( 14 - 14) =      9.06234  eV     1   --> A'             
     e( 15 - 15) =      9.19321  eV     1   --> A'             
     e( 16 - 16) =     10.90319  eV     1   --> A'             

 **************************************************************************

 **************************************************************************

                    xk=(   0.25000,   0.00000,   0.00000  )

     Band symmetry, C_s (m)     point group:

     e(  1 -  1) =    -25.72801  eV     1   --> A'             
     e(  2 -  2) =    -24.33038  eV     1   --> A''            
     e(  3 -  3) =    -23.88765  eV     1   --> A'             
     e(  4 -  4) =    -15.07034  eV     1   --> A'             
     e(  5 -  5) =     -8.43782  eV     1   --> A''            
     e(  6 -  6) =     -7.68923  eV     1   --> A'             
     e(  7 -  7) =     -4.10713  eV     1   --> A'             
     e(  8 -  8) =     -1.21250  eV     1   --> A''            
     e(  9 -  9) =      4.72213  eV     1   --> A''            
     e( 10 - 10) =      4.84854  eV     1   --> A'             
     e( 11 - 11) =      4.99203  eV     1   --> A'             
     e( 12 - 12) =      6.21238  eV     1   --> A'             
     e( 13 - 13) =      7.03805  eV     1   --> A'             
     e( 14 - 14) =      8.76404  eV     1   --> A'             
     e( 15 - 15) =      9.37291  eV     1   --> A'             
     e( 16 - 16) =     11.08680  eV     1   --> A'             

 **************************************************************************

 **************************************************************************

                    xk=(   0.26667,   0.00000,   0.00000  )

     Band symmetry, C_s (m)     point group:

     e(  1 -  1) =    -25.88447  eV     1   --> A'             
     e(  2 -  2) =    -24.38598  eV     1   --> A''            
     e(  3 -  3) =    -23.86768  eV     1   --> A'             
     e(  4 -  4) =    -14.91020  eV     1   --> A'             
     e(  5 -  5) =     -8.13616  eV     1   --> A''            
     e(  6 -  6) =     -7.31325  eV     1   --> A'             
     e(  7 -  7) =     -3.96301  eV     1   --> A'             
     e(  8 -  8) =     -1.59944  eV     1   --> A''            
     e(  9 -  9) =      4.58477  eV     1   --> A''            
     e( 10 - 10) =      5.04125  eV     1   --> A'             
     e( 11 - 11) =      5.20124  eV     1   --> A'             
     e( 12 - 12) =      6.41432  eV     1   --> A'             
     e( 13 - 13) =      7.18518  eV     1   --> A'             
     e( 14 - 14) =      8.48968  eV     1   --> A'             
     e( 15 - 15) =      9.56221  eV     1   --> A'             
     e( 16 - 16) =     11.28802  eV     1   --> A'             

 **************************************************************************

 **************************************************************************

                    xk=(   0.28333,   0.00000,   0.00000  )

     Band symmetry, C_s (m)     point group:

     e(  1 -  1) =    -26.04100  eV     1   --> A'             
     e(  2 -  2) =    -24.43864  eV     1   --> A''            
     e(  3 -  3) =    -23.84646  eV     1   --> A'             
     e(  4 -  4) =    -14.74063  eV     1   --> A'             
     e(  5 -  5) =     -7.82604  eV     1   --> A''            
     e(  6 -  6) =     -6.92860  eV     1   --> A'             
     e(  7 -  7) =     -3.80980  eV     1   --> A'             
     e(  8 -  8) =     -1.98698  eV     1   --> A''            
     e(  9 -  9) =      4.43987  eV     1   --> A''            
     e( 10 - 10) =      5.23885  eV     1   --> A'             
     e( 11 - 11) =      5.42366  eV     1   --> A'             
     e( 12 - 12) =      6.62854  eV     1   --> A'             
     e( 13 - 13) =      7.27798  eV     1   --> A'             
     e( 14 - 14) =      8.28598  eV     1   --> A'             
     e( 15 - 15) =      9.75928  eV     1   --> A'             
     e( 16 - 16) =     11.30914  eV     1   --> A''            

 **************************************************************************

 **************************************************************************

                    xk=(   0.30000,   0.00000,   0.00000  )

     Band symmetry, C_s (m)     point group:

     e(  1 -  1) =    -26.19645  eV     1   --> A'             
     e(  2 -  2) =    -24.48777  eV     1   --> A''            
     e(  3 -  3) =    -23.82469  eV     1   --> A'             
     e(  4 -  4) =    -14.56195  eV     1   --> A'             
     e(  5 -  5) =     -7.50905  eV     1   --> A''            
     e(  6 -  6) =     -6.53724  eV     1   --> A'             
     e(  7 -  7) =     -3.64747  eV     1   --> A'             
     e(  8 -  8) =     -2.37377  eV     1   --> A''            
     e(  9 -  9) =      4.28780  eV     1   --> A''            
     e( 10 - 10) =      5.43420  eV     1   --> A'             
     e( 11 - 11) =      5.65919  eV     1   --> A'             
     e( 12 - 12) =      6.85469  eV     1   --> A'             
     e( 13 - 13) =      7.25217  eV     1   --> A'             
     e( 14 - 14) =      8.22756  eV     1   --> A'             
     e( 15 - 15) =      9.96084  eV     1   --> A'             
     e( 16 - 16) =     10.89258  eV     1   --> A''            

 **************************************************************************

 **************************************************************************

                    xk=(   0.31667,   0.00000,   0.00000  )

     Band symmetry, C_s (m)     point group:

     e(  1 -  1) =    -26.34953  eV     1   --> A'             
     e(  2 -  2) =    -24.53264  eV     1   --> A''            
     e(  3 -  3) =    -23.80304  eV     1   --> A'             
     e(  4 -  4) =    -14.37449  eV     1   --> A'             
     e(  5 -  5) =     -7.18690  eV     1   --> A''            
     e(  6 -  6) =     -6.14099  eV     1   --> A'             
     e(  7 -  7) =     -3.47575  eV     1   --> A'             
     e(  8 -  8) =     -2.75860  eV     1   --> A''            
     e(  9 -  9) =      4.12892  eV     1   --> A''            
     e( 10 - 10) =      5.61115  eV     1   --> A'             
     e( 11 - 11) =      5.90765  eV     1   --> A'             
     e( 12 - 12) =      7.09226  eV     1   --> A'             
     e( 13 - 13) =      7.11312  eV     1   --> A'             
     e( 14 - 14) =      8.32769  eV     1   --> A'             
     e( 15 - 15) =     10.16050  eV     1   --> A'             
     e( 16 - 16) =     10.46955  eV     1   --> A''            

 **************************************************************************

 **************************************************************************

                    xk=(   0.33333,   0.00000,   0.00000  )

     Band symmetry, C_s (m)     point group:

     e(  1 -  1) =    -26.49937  eV     1   --> A'             
     e(  2 -  2) =    -24.57339  eV     1   --> A''            
     e(  3 -  3) =    -23.78190  eV     1   --> A'             
     e(  4 -  4) =    -14.17771  eV     1   --> A'             
     e(  5 -  5) =     -6.86039  eV     1   --> A''            
     e(  6 -  6) =     -5.74144  eV     1   --> A'             
     e(  7 -  7) =     -3.29430  eV     1   --> A'             
     e(  8 -  8) =     -3.14089  eV     1   --> A''            
     e(  9 -  9) =      3.96363  eV     1   --> A''            
     e( 10 - 10) =      5.73311  eV     1   --> A'             
     e( 11 - 11) =      6.16879  eV     1   --> A'             
     e( 12 - 12) =      6.96576  eV     1   --> A'             
     e( 13 - 13) =      7.34044  eV     1   --> A'             
     e( 14 - 14) =      8.52071  eV     1   --> A'             
     e( 15 - 15) =     10.04074  eV     1   --> A''            
     e( 16 - 16) =     10.34465  eV     1   --> A'             

 **************************************************************************

 **************************************************************************

                    xk=(   0.35000,   0.00000,   0.00000  )

     Band symmetry, C_s (m)     point group:

     e(  1 -  1) =    -26.64543  eV     1   --> A'             
     e(  2 -  2) =    -24.60939  eV     1   --> A''            
     e(  3 -  3) =    -23.76196  eV     1   --> A'             
     e(  4 -  4) =    -13.97334  eV     1   --> A'             
     e(  5 -  5) =     -6.53191  eV     1   --> A''            
     e(  6 -  6) =     -5.34115  eV     1   --> A'             
     e(  7 -  7) =     -3.52050  eV     1   --> A''            
     e(  8 -  8) =     -3.10273  eV     1   --> A'             
     e(  9 -  9) =      3.79246  eV     1   --> A''            
     e( 10 - 10) =      5.73743  eV     1   --> A'             
     e( 11 - 11) =      6.44220  eV     1   --> A'             
     e( 12 - 12) =      6.91984  eV     1   --> A'             
     e( 13 - 13) =      7.59789  eV     1   --> A'             
     e( 14 - 14) =      8.76096  eV     1   --> A'             
     e( 15 - 15) =      9.60764  eV     1   --> A''            
     e( 16 - 16) =     10.48284  eV     1   --> A'             

 **************************************************************************

 **************************************************************************

                    xk=(   0.36667,   0.00000,   0.00000  )

     Band symmetry, C_s (m)     point group:

     e(  1 -  1) =    -26.78661  eV     1   --> A'             
     e(  2 -  2) =    -24.63969  eV     1   --> A''            
     e(  3 -  3) =    -23.74363  eV     1   --> A'             
     e(  4 -  4) =    -13.76158  eV     1   --> A'             
     e(  5 -  5) =     -6.20289  eV     1   --> A''            
     e(  6 -  6) =     -4.94228  eV     1   --> A'             
     e(  7 -  7) =     -3.89419  eV     1   --> A''            
     e(  8 -  8) =     -2.90023  eV     1   --> A'             
     e(  9 -  9) =      3.61602  eV     1   --> A''            
     e( 10 - 10) =      5.59848  eV     1   --> A'             
     e( 11 - 11) =      6.72722  eV     1   --> A'             
     e( 12 - 12) =      7.02109  eV     1   --> A'             
     e( 13 - 13) =      7.86224  eV     1   --> A'             
     e( 14 - 14) =      9.03006  eV     1   --> A'             
     e( 15 - 15) =      9.17123  eV     1   --> A''            
     e( 16 - 16) =     10.51940  eV     1   --> A'             

 **************************************************************************

 **************************************************************************

                    xk=(   0.38333,   0.00000,   0.00000  )

     Band symmetry, C_s (m)     point group:

     e(  1 -  1) =    -26.92256  eV     1   --> A'             
     e(  2 -  2) =    -24.66468  eV     1   --> A''            
     e(  3 -  3) =    -23.72756  eV     1   --> A'             
     e(  4 -  4) =    -13.54146  eV     1   --> A'             
     e(  5 -  5) =     -5.87455  eV     1   --> A''            
     e(  6 -  6) =     -4.54725  eV     1   --> A'             
     e(  7 -  7) =     -4.26279  eV     1   --> A''            
     e(  8 -  8) =     -2.68592  eV     1   --> A'             
     e(  9 -  9) =      3.43464  eV     1   --> A''            
     e( 10 - 10) =      5.36759  eV     1   --> A'             
     e( 11 - 11) =      7.02262  eV     1   --> A'             
     e( 12 - 12) =      7.22754  eV     1   --> A'             
     e( 13 - 13) =      8.12895  eV     1   --> A'             
     e( 14 - 14) =      8.73244  eV     1   --> A''            
     e( 15 - 15) =      9.32065  eV     1   --> A'             
     e( 16 - 16) =     10.41724  eV     1   --> A'             

 **************************************************************************

 **************************************************************************

                    xk=(   0.40000,   0.00000,   0.00000  )

     Band symmetry, C_s (m)     point group:

     e(  1 -  1) =    -27.05225  eV     1   --> A'             
     e(  2 -  2) =    -24.68329  eV     1   --> A''            
     e(  3 -  3) =    -23.71399  eV     1   --> A'             
     e(  4 -  4) =    -13.31337  eV     1   --> A'             
     e(  5 -  5) =     -5.54831  eV     1   --> A''            
     e(  6 -  6) =     -4.62276  eV     1   --> A''            
     e(  7 -  7) =     -4.15898  eV     1   --> A'             
     e(  8 -  8) =     -2.45828  eV     1   --> A'             
     e(  9 -  9) =      3.24911  eV     1   --> A''            
     e( 10 - 10) =      5.09630  eV     1   --> A'             
     e( 11 - 11) =      7.32591  eV     1   --> A'             
     e( 12 - 12) =      7.49234  eV     1   --> A'             
     e( 13 - 13) =      8.29300  eV     1   --> A''            
     e( 14 - 14) =      8.38851  eV     1   --> A'             
     e( 15 - 15) =      9.62939  eV     1   --> A'             
     e( 16 - 16) =     10.22688  eV     1   --> A'             

 **************************************************************************

 **************************************************************************

                    xk=(   0.41667,   0.00000,   0.00000  )

     Band symmetry, C_s (m)     point group:

     e(  1 -  1) =    -27.17582  eV     1   --> A'             
     e(  2 -  2) =    -24.69618  eV     1   --> A''            
     e(  3 -  3) =    -23.70359  eV     1   --> A'             
     e(  4 -  4) =    -13.07958  eV     1   --> A'             
     e(  5 -  5) =     -5.22584  eV     1   --> A''            
     e(  6 -  6) =     -4.98037  eV     1   --> A''            
     e(  7 -  7) =     -3.78035  eV     1   --> A'             
     e(  8 -  8) =     -2.21577  eV     1   --> A'             
     e(  9 -  9) =      3.05979  eV     1   --> A''            
     e( 10 - 10) =      4.81073  eV     1   --> A'             
     e( 11 - 11) =      7.63121  eV     1   --> A'             
     e( 12 - 12) =      7.79211  eV     1   --> A'             
     e( 13 - 13) =      7.85262  eV     1   --> A''            
     e( 14 - 14) =      8.61959  eV     1   --> A'             
     e( 15 - 15) =      9.95432  eV     1   --> A'             
     e( 16 - 16) =     10.03640  eV     1   --> A'             

 **************************************************************************

 **************************************************************************

                    xk=(   0.43333,   0.00000,   0.00000  )

     Band symmetry, C_s (m)     point group:

     e(  1 -  1) =    -27.29247  eV     1   --> A'             
     e(  2 -  2) =    -24.70255  eV     1   --> A''            
     e(  3 -  3) =    -23.69667  eV     1   --> A'             
     e(  4 -  4) =    -12.83889  eV     1   --> A'             
     e(  5 -  5) =     -5.33075  eV     1   --> A''            
     e(  6 -  6) =     -4.90856  eV     1   --> A''            
     e(  7 -  7) =     -3.41485  eV     1   --> A'             
     e(  8 -  8) =     -1.95651  eV     1   --> A'             
     e(  9 -  9) =      2.86739  eV     1   --> A''            
     e( 10 - 10) =      4.52353  eV     1   --> A'             
     e( 11 - 11) =      7.41297  eV     1   --> A''            
     e( 12 - 12) =      7.92179  eV     1   --> A'             
     e( 13 - 13) =      8.11671  eV     1   --> A'             
     e( 14 - 14) =      8.78260  eV     1   --> A'             
     e( 15 - 15) =      9.93669  eV     1   --> A'             
     e( 16 - 16) =     10.29465  eV     1   --> A'             

 **************************************************************************

 **************************************************************************

                    xk=(   0.45000,   0.00000,   0.00000  )

     Band symmetry, C_s (m)     point group:

     e(  1 -  1) =    -27.40221  eV     1   --> A'             
     e(  2 -  2) =    -24.70269  eV     1   --> A''            
     e(  3 -  3) =    -23.69378  eV     1   --> A'             
     e(  4 -  4) =    -12.59313  eV     1   --> A'             
     e(  5 -  5) =     -5.67299  eV     1   --> A''            
     e(  6 -  6) =     -4.59842  eV     1   --> A''            
     e(  7 -  7) =     -3.06568  eV     1   --> A'             
     e(  8 -  8) =     -1.67929  eV     1   --> A'             
     e(  9 -  9) =      2.67252  eV     1   --> A''            
     e( 10 - 10) =      4.24111  eV     1   --> A'             
     e( 11 - 11) =      6.97528  eV     1   --> A''            
     e( 12 - 12) =      8.14236  eV     1   --> A'             
     e( 13 - 13) =      8.46129  eV     1   --> A'             
     e( 14 - 14) =      8.87276  eV     1   --> A'             
     e( 15 - 15) =     10.00285  eV     1   --> A'             
     e( 16 - 16) =     10.64970  eV     1   --> A'             

 **************************************************************************

 **************************************************************************

                    xk=(   0.46667,   0.00000,   0.00000  )

     Band symmetry, C_s (m)     point group:

     e(  1 -  1) =    -27.50425  eV     1   --> A'             
     e(  2 -  2) =    -24.69628  eV     1   --> A''            
     e(  3 -  3) =    -23.69509  eV     1   --> A'             
     e(  4 -  4) =    -12.34238  eV     1   --> A'             
     e(  5 -  5) =     -6.00737  eV     1   --> A''            
     e(  6 -  6) =     -4.29671  eV     1   --> A''            
     e(  7 -  7) =     -2.73476  eV     1   --> A'             
     e(  8 -  8) =     -1.38346  eV     1   --> A'             
     e(  9 -  9) =      2.47578  eV     1   --> A''            
     e( 10 - 10) =      3.96757  eV     1   --> A'             
     e( 11 - 11) =      6.54058  eV     1   --> A''            
     e( 12 - 12) =      8.17842  eV     1   --> A'             
     e( 13 - 13) =      8.82337  eV     1   --> A'             
     e( 14 - 14) =      9.02996  eV     1   --> A'             
     e( 15 - 15) =     10.21786  eV     1   --> A'             
     e( 16 - 16) =     11.01911  eV     1   --> A'             

 **************************************************************************

 **************************************************************************

                    xk=(   0.48333,   0.00000,   0.00000  )

     Band symmetry, C_s (m)     point group:

     e(  1 -  1) =    -27.59878  eV     1   --> A'             
     e(  2 -  2) =    -24.68338  eV     1   --> A''            
     e(  3 -  3) =    -23.70125  eV     1   --> A'             
     e(  4 -  4) =    -12.08771  eV     1   --> A'             
     e(  5 -  5) =     -6.33429  eV     1   --> A''            
     e(  6 -  6) =     -4.00557  eV     1   --> A''            
     e(  7 -  7) =     -2.42323  eV     1   --> A'             
     e(  8 -  8) =     -1.07028  eV     1   --> A'             
     e(  9 -  9) =      2.27770  eV     1   --> A''            
     e( 10 - 10) =      3.70571  eV     1   --> A'             
     e( 11 - 11) =      6.11019  eV     1   --> A''            
     e( 12 - 12) =      8.03485  eV     1   --> A'             
     e( 13 - 13) =      9.20151  eV     1   --> A'             
     e( 14 - 14) =      9.31829  eV     1   --> A'             
     e( 15 - 15) =     10.51625  eV     1   --> A'             
     e( 16 - 16) =     11.40257  eV     1   --> A'             

 **************************************************************************

 **************************************************************************

                    xk=(   0.50000,   0.00000,   0.00000  )

     Band symmetry, C_s (m)     point group:

     e(  1 -  1) =    -27.68564  eV     1   --> A'             
     e(  2 -  2) =    -24.66407  eV     1   --> A''            
     e(  3 -  3) =    -23.71251  eV     1   --> A'             
     e(  4 -  4) =    -11.82970  eV     1   --> A'             
     e(  5 -  5) =     -6.65226  eV     1   --> A''            
     e(  6 -  6) =     -3.72635  eV     1   --> A''            
     e(  7 -  7) =     -2.12997  eV     1   --> A'             
     e(  8 -  8) =     -0.74241  eV     1   --> A'             
     e(  9 -  9) =      2.07887  eV     1   --> A''            
     e( 10 - 10) =      3.45771  eV     1   --> A'             
     e( 11 - 11) =      5.68569  eV     1   --> A''            
     e( 12 - 12) =      7.81733  eV     1   --> A'             
     e( 13 - 13) =      9.59490  eV     1   --> A'             
     e( 14 - 14) =      9.67350  eV     1   --> A'             
     e( 15 - 15) =     10.85908  eV     1   --> A'             
     e( 16 - 16) =     11.79989  eV     1   --> A'             

 **************************************************************************

 **************************************************************************

                    xk=(   0.51667,   0.00000,   0.00000  )

     Band symmetry, C_s (m)     point group:

     e(  1 -  1) =    -27.76456  eV     1   --> A'             
     e(  2 -  2) =    -24.63834  eV     1   --> A''            
     e(  3 -  3) =    -23.72916  eV     1   --> A'             
     e(  4 -  4) =    -11.56957  eV     1   --> A'             
     e(  5 -  5) =     -6.96259  eV     1   --> A''            
     e(  6 -  6) =     -3.46124  eV     1   --> A''            
     e(  7 -  7) =     -1.85353  eV     1   --> A'             
     e(  8 -  8) =     -0.40397  eV     1   --> A'             
     e(  9 -  9) =      1.87985  eV     1   --> A''            
     e( 10 - 10) =      3.22543  eV     1   --> A'             
     e( 11 - 11) =      5.26886  eV     1   --> A''            
     e( 12 - 12) =      7.57897  eV     1   --> A'             
     e( 13 - 13) =     10.00291  eV     1   --> A'             
     e( 14 - 14) =     10.06137  eV     1   --> A'             
     e( 15 - 15) =     11.22947  eV     1   --> A'             
     e( 16 - 16) =     12.21083  eV     1   --> A'             

 **************************************************************************

 **************************************************************************

                    xk=(   0.53333,   0.00000,   0.00000  )

     Band symmetry, C_s (m)     point group:

     e(  1 -  1) =    -27.83521  eV     1   --> A'             
     e(  2 -  2) =    -24.60650  eV     1   --> A''            
     e(  3 -  3) =    -23.75124  eV     1   --> A'             
     e(  4 -  4) =    -11.30664  eV     1   --> A'             
     e(  5 -  5) =     -7.26323  eV     1   --> A''            
     e(  6 -  6) =     -3.21152  eV     1   --> A''            
     e(  7 -  7) =     -1.59089  eV     1   --> A'             
     e(  8 -  8) =     -0.05951  eV     1   --> A'             
     e(  9 -  9) =      1.68105  eV     1   --> A''            
     e( 10 - 10) =      3.01066  eV     1   --> A'             
     e( 11 - 11) =      4.86149  eV     1   --> A''            
     e( 12 - 12) =      7.34049  eV     1   --> A'             
     e( 13 - 13) =     10.42529  eV     1   --> A'             
     e( 14 - 14) =     10.47036  eV     1   --> A'             
     e( 15 - 15) =     11.61981  eV     1   --> A'             
     e( 16 - 16) =     12.63534  eV     1   --> A'             

 **************************************************************************

 **************************************************************************

                    xk=(   0.55000,   0.00000,   0.00000  )

     Band symmetry, C_s (m)     point group:

     e(  1 -  1) =    -27.89760  eV     1   --> A'             
     e(  2 -  2) =    -24.56844  eV     1   --> A''            
     e(  3 -  3) =    -23.77937  eV     1   --> A'             
     e(  4 -  4) =    -11.04465  eV     1   --> A'             
     e(  5 -  5) =     -7.55462  eV     1   --> A''            
     e(  6 -  6) =     -2.98025  eV     1   --> A''            
     e(  7 -  7) =     -1.34034  eV     1   --> A'             
     e(  8 -  8) =      0.28575  eV     1   --> A'             
     e(  9 -  9) =      1.48293  eV     1   --> A''            
     e( 10 - 10) =      2.81500  eV     1   --> A'             
     e( 11 - 11) =      4.46629  eV     1   --> A''            
     e( 12 - 12) =      7.11178  eV     1   --> A'             
     e( 13 - 13) =     10.86145  eV     1   --> A'             
     e( 14 - 14) =     10.89579  eV     1   --> A'             
     e( 15 - 15) =     12.02603  eV     1   --> A'             
     e( 16 - 16) =     13.07282  eV     1   --> A'             

 **************************************************************************

 **************************************************************************

                    xk=(   0.56667,   0.00000,   0.00000  )

     Band symmetry, C_s (m)     point group:

     e(  1 -  1) =    -27.95137  eV     1   --> A'             
     e(  2 -  2) =    -24.52399  eV     1   --> A''            
     e(  3 -  3) =    -23.81350  eV     1   --> A'             
     e(  4 -  4) =    -10.78415  eV     1   --> A'             
     e(  5 -  5) =     -7.83644  eV     1   --> A''            
     e(  6 -  6) =     -2.76935  eV     1   --> A''            
     e(  7 -  7) =     -1.10018  eV     1   --> A'             
     e(  8 -  8) =      0.62706  eV     1   --> A'             
     e(  9 -  9) =      1.28606  eV     1   --> A''            
     e( 10 - 10) =      2.64004  eV     1   --> A'             
     e( 11 - 11) =      4.08618  eV     1   --> A''            
     e( 12 - 12) =      6.89896  eV     1   --> A'             
     e( 13 - 13) =     11.31114  eV     1   --> A'             
     e( 14 - 14) =     11.33526  eV     1   --> A'             
     e( 15 - 15) =     12.44543  eV     1   --> A'             
     e( 16 - 16) =     13.52281  eV     1   --> A'             

 **************************************************************************

 **************************************************************************

                    xk=(   0.58333,   0.00000,   0.00000  )

     Band symmetry, C_s (m)     point group:

     e(  1 -  1) =    -27.99701  eV     1   --> A'             
     e(  2 -  2) =    -24.47435  eV     1   --> A''            
     e(  3 -  3) =    -23.85391  eV     1   --> A'             
     e(  4 -  4) =    -10.52585  eV     1   --> A'             
     e(  5 -  5) =     -8.10924  eV     1   --> A''            
     e(  6 -  6) =     -2.58198  eV     1   --> A''            
     e(  7 -  7) =     -0.86934  eV     1   --> A'             
     e(  8 -  8) =      0.95970  eV     1   --> A'             
     e(  9 -  9) =      1.09032  eV     1   --> A''            
     e( 10 - 10) =      2.48748  eV     1   --> A'             
     e( 11 - 11) =      3.72336  eV     1   --> A''            
     e( 12 - 12) =      6.70652  eV     1   --> A'             
     e( 13 - 13) =     11.77396  eV     1   --> A'             
     e( 14 - 14) =     11.78708  eV     1   --> A'             
     e( 15 - 15) =     12.87556  eV     1   --> A'             
     e( 16 - 16) =     13.98413  eV     1   --> A'             

 **************************************************************************

 **************************************************************************

                    xk=(   0.60000,   0.00000,   0.00000  )

     Band symmetry, C_s (m)     point group:

     e(  1 -  1) =    -28.03426  eV     1   --> A'             
     e(  2 -  2) =    -24.41909  eV     1   --> A''            
     e(  3 -  3) =    -23.90064  eV     1   --> A'             
     e(  4 -  4) =    -10.27065  eV     1   --> A'             
     e(  5 -  5) =     -8.37161  eV     1   --> A''            
     e(  6 -  6) =     -2.42030  eV     1   --> A''            
     e(  7 -  7) =     -0.64735  eV     1   --> A'             
     e(  8 -  8) =      0.89628  eV     1   --> A''            
     e(  9 -  9) =      1.27871  eV     1   --> A'             
     e( 10 - 10) =      2.35895  eV     1   --> A'             
     e( 11 - 11) =      3.38261  eV     1   --> A''            
     e( 12 - 12) =      6.53902  eV     1   --> A'             
     e( 13 - 13) =     12.24786  eV     1   --> A'             
     e( 14 - 14) =     12.25100  eV     1   --> A'             
     e( 15 - 15) =     13.31276  eV     1   --> A'             
     e( 16 - 16) =     14.45286  eV     1   --> A'             

 **************************************************************************

 **************************************************************************

                    xk=(   0.61667,   0.00000,   0.00000  )

     Band symmetry, C_s (m)     point group:

     e(  1 -  1) =    -28.06317  eV     1   --> A'             
     e(  2 -  2) =    -24.35880  eV     1   --> A''            
     e(  3 -  3) =    -23.95388  eV     1   --> A'             
     e(  4 -  4) =    -10.02163  eV     1   --> A'             
     e(  5 -  5) =     -8.62464  eV     1   --> A''            
     e(  6 -  6) =     -2.28893  eV     1   --> A''            
     e(  7 -  7) =     -0.43422  eV     1   --> A'             
     e(  8 -  8) =      0.70419  eV     1   --> A''            
     e(  9 -  9) =      1.57903  eV     1   --> A'             
     e( 10 - 10) =      2.25614  eV     1   --> A'             
     e( 11 - 11) =      3.06718  eV     1   --> A''            
     e( 12 - 12) =      6.40051  eV     1   --> A'             
     e( 13 - 13) =     12.71907  eV     1   --> A'             
     e( 14 - 14) =     12.73685  eV     1   --> A'             
     e( 15 - 15) =     13.74767  eV     1   --> A'             
     e( 16 - 16) =     14.84424  eV     1   -->   ?

 **************************************************************************

 **************************************************************************

                    xk=(   0.63333,   0.00000,   0.00000  )

     Band symmetry, C_s (m)     point group:

     e(  1 -  1) =    -28.08379  eV     1   --> A'             
     e(  2 -  2) =    -24.29376  eV     1   --> A''            
     e(  3 -  3) =    -24.01346  eV     1   --> A'             
     e(  4 -  4) =     -9.78005  eV     1   --> A'             
     e(  5 -  5) =     -8.86774  eV     1   --> A''            
     e(  6 -  6) =     -2.19096  eV     1   --> A''            
     e(  7 -  7) =     -0.23047  eV     1   --> A'             
     e(  8 -  8) =      0.51462  eV     1   --> A''            
     e(  9 -  9) =      1.85539  eV     1   --> A'             
     e( 10 - 10) =      2.18067  eV     1   --> A'             
     e( 11 - 11) =      2.78183  eV     1   --> A''            
     e( 12 - 12) =      6.29605  eV     1   --> A'             
     e( 13 - 13) =     13.19077  eV     1   --> A'             
     e( 14 - 14) =     13.23259  eV     1   --> A'             
     e( 15 - 15) =     14.13433  eV     1   --> A'             
     e( 16 - 16) =     14.69743  eV     1   -->   ?

 **************************************************************************

 **************************************************************************

                    xk=(   0.65000,   0.00000,   0.00000  )

     Band symmetry, C_s (m)     point group:

     e(  1 -  1) =    -28.09600  eV     1   --> A'             
     e(  2 -  2) =    -24.22437  eV     1   --> A''            
     e(  3 -  3) =    -24.07921  eV     1   --> A'             
     e(  4 -  4) =     -9.54595  eV     1   --> A'             
     e(  5 -  5) =     -9.10069  eV     1   --> A''            
     e(  6 -  6) =     -2.12966  eV     1   --> A''            
     e(  7 -  7) =     -0.03617  eV     1   --> A'             
     e(  8 -  8) =      0.32862  eV     1   --> A''            
     e(  9 -  9) =      2.10292  eV     1   --> A'             
     e( 10 - 10) =      2.13428  eV     1   --> A'             
     e( 11 - 11) =      2.53039  eV     1   --> A''            
     e( 12 - 12) =      6.23034  eV     1   --> A'             
     e( 13 - 13) =     13.63830  eV     1   --> A'             
     e( 14 - 14) =     13.72761  eV     1   --> A'             
     e( 15 - 15) =     14.25358  eV     1   --> A'             
     e( 16 - 16) =     14.41770  eV     1   --> A''            

 **************************************************************************

 **************************************************************************

                    xk=(   0.66667,   0.00000,   0.00000  )

     point group C_3v (3m)  
     there are  3 classes
     the character table:

       E     2C3   3s_v 
A_1    1.00  1.00  1.00
A_2    1.00  1.00 -1.00
E      2.00 -1.00  0.00

     the symmetry operations in each class and the name of the first element:

     E        1
                                                                 
     2C3      2    3
                                                                 
     3s_v     4    6    5
                                                                 

     Band symmetry, C_3v (3m)   point group:

     e(  1 -  1) =    -28.10011  eV     1   --> A_1  L_1       
     e(  2 -  3) =    -24.15120  eV     2   --> E    L_3       
     e(  4 -  5) =     -9.32251  eV     2   --> E    L_3       
     e(  6 -  6) =     -2.10896  eV     1   --> A_2  L_2       
     e(  7 -  8) =      0.14747  eV     2   --> E    L_3       
     e(  9 -  9) =      2.11849  eV     1   --> A_1  L_1       
     e( 10 - 11) =      2.31610  eV     2   --> E    L_3       
     e( 12 - 12) =      6.20763  eV     1   --> A_1  L_1       
     e( 13 - 13) =     13.87311  eV     1   --> A_1  L_1       
     e( 14 - 15) =     14.14620  eV     2   --> E    L_3       
     e( 16 - 16) =     14.33319  eV     1   -->   ?

 **************************************************************************

 **************************************************************************

                    xk=(   0.65833,   0.01443,   0.00000  )

     point group C_s (m)    
     there are  2 classes
     the character table:

       E     s    
A'     1.00  1.00
A''    1.00 -1.00

     the symmetry operations in each class and the name of the first element:

     E        1
                                                                 
     s        2
                                                                 

     Band symmetry, C_s (m)     point group:

     e(  1 -  1) =    -28.09604  eV     1   --> A'             
     e(  2 -  2) =    -24.22911  eV     1   --> A'             
     e(  3 -  3) =    -24.07457  eV     1   --> A''            
     e(  4 -  4) =     -9.53491  eV     1   --> A''            
     e(  5 -  5) =     -9.11157  eV     1   --> A'             
     e(  6 -  6) =     -2.13007  eV     1   --> A''            
     e(  7 -  7) =     -0.02694  eV     1   --> A''            
     e(  8 -  8) =      0.31972  eV     1   --> A'             
     e(  9 -  9) =      2.13474  eV     1   --> A'             
     e( 10 - 10) =      2.14074  eV     1   --> A''            
     e( 11 - 11) =      2.49205  eV     1   --> A'             
     e( 12 - 12) =      6.23098  eV     1   --> A'             
     e( 13 - 13) =     13.76078  eV     1   --> A'             
     e( 14 - 14) =     13.88686  eV     1   --> A''            
     e( 15 - 15) =     14.06943  eV     1   --> A''            
     e( 16 - 16) =     14.13074  eV     1   --> A'             

 **************************************************************************

 **************************************************************************

                    xk=(   0.65000,   0.02887,   0.00000  )

     Band symmetry, C_s (m)     point group:

     e(  1 -  1) =    -28.08411  eV     1   --> A'             
     e(  2 -  2) =    -24.31278  eV     1   --> A'             
     e(  3 -  3) =    -23.99524  eV     1   --> A''            
     e(  4 -  4) =     -9.73694  eV     1   --> A''            
     e(  5 -  5) =     -8.91306  eV     1   --> A'             
     e(  6 -  6) =     -2.19375  eV     1   --> A''            
     e(  7 -  7) =     -0.19295  eV     1   --> A''            
     e(  8 -  8) =      0.47952  eV     1   --> A'             
     e(  9 -  9) =      2.00370  eV     1   --> A''            
     e( 10 - 10) =      2.18427  eV     1   --> A'             
     e( 11 - 11) =      2.62950  eV     1   --> A'             
     e( 12 - 12) =      6.30077  eV     1   --> A'             
     e( 13 - 13) =     13.58452  eV     1   --> A'             
     e( 14 - 14) =     13.64011  eV     1   --> A''            
     e( 15 - 15) =     13.81910  eV     1   --> A''            
     e( 16 - 16) =     13.91495  eV     1   --> A'             

 **************************************************************************

 **************************************************************************

                    xk=(   0.64167,   0.04330,   0.00000  )

     Band symmetry, C_s (m)     point group:

     e(  1 -  1) =    -28.06437  eV     1   --> A'             
     e(  2 -  2) =    -24.40171  eV     1   --> A'             
     e(  3 -  3) =    -23.91377  eV     1   --> A''            
     e(  4 -  4) =     -9.92872  eV     1   --> A''            
     e(  5 -  5) =     -8.72869  eV     1   --> A'             
     e(  6 -  6) =     -2.29664  eV     1   --> A''            
     e(  7 -  7) =     -0.34896  eV     1   --> A''            
     e(  8 -  8) =      0.62596  eV     1   --> A'             
     e(  9 -  9) =      1.90287  eV     1   --> A''            
     e( 10 - 10) =      2.26812  eV     1   --> A'             
     e( 11 - 11) =      2.73072  eV     1   --> A'             
     e( 12 - 12) =      6.41455  eV     1   --> A'             
     e( 13 - 13) =     13.40418  eV     1   --> A'             
     e( 14 - 14) =     13.40617  eV     1   --> A''            
     e( 15 - 15) =     13.58222  eV     1   --> A''            
     e( 16 - 16) =     13.68506  eV     1   --> A'             

 **************************************************************************

 **************************************************************************

                    xk=(   0.63333,   0.05774,   0.00000  )

     Band symmetry, C_s (m)     point group:

     e(  1 -  1) =    -28.03731  eV     1   --> A'             
     e(  2 -  2) =    -24.49584  eV     1   --> A'             
     e(  3 -  3) =    -23.83095  eV     1   --> A''            
     e(  4 -  4) =    -10.11044  eV     1   --> A''            
     e(  5 -  5) =     -8.55953  eV     1   --> A'             
     e(  6 -  6) =     -2.43475  eV     1   --> A''            
     e(  7 -  7) =     -0.49435  eV     1   --> A''            
     e(  8 -  8) =      0.75811  eV     1   --> A'             
     e(  9 -  9) =      1.83344  eV     1   --> A''            
     e( 10 - 10) =      2.38690  eV     1   --> A'             
     e( 11 - 11) =      2.80038  eV     1   --> A'             
     e( 12 - 12) =      6.56682  eV     1   --> A'             
     e( 13 - 13) =     13.18513  eV     1   --> A''            
     e( 14 - 14) =     13.22914  eV     1   --> A'             
     e( 15 - 15) =     13.35882  eV     1   --> A''            
     e( 16 - 16) =     13.46003  eV     1   --> A'             

 **************************************************************************

 **************************************************************************

                    xk=(   0.62500,   0.07217,   0.00000  )

     Band symmetry, C_s (m)     point group:

     e(  1 -  1) =    -28.00301  eV     1   --> A'             
     e(  2 -  2) =    -24.59464  eV     1   --> A'             
     e(  3 -  3) =    -23.74728  eV     1   --> A''            
     e(  4 -  4) =    -10.28080  eV     1   --> A''            
     e(  5 -  5) =     -8.40569  eV     1   --> A'             
     e(  6 -  6) =     -2.60026  eV     1   --> A''            
     e(  7 -  7) =     -0.62944  eV     1   --> A''            
     e(  8 -  8) =      0.87528  eV     1   --> A'             
     e(  9 -  9) =      1.79071  eV     1   --> A''            
     e( 10 - 10) =      2.54096  eV     1   --> A'             
     e( 11 - 11) =      2.84477  eV     1   --> A'             
     e( 12 - 12) =      6.75037  eV     1   --> A'             
     e( 13 - 13) =     12.97726  eV     1   --> A''            
     e( 14 - 14) =     13.06204  eV     1   --> A'             
     e( 15 - 15) =     13.14889  eV     1   --> A''            
     e( 16 - 16) =     13.24339  eV     1   --> A'             

 **************************************************************************

 **************************************************************************

                    xk=(   0.61667,   0.08660,   0.00000  )

     Band symmetry, C_s (m)     point group:

     e(  1 -  1) =    -27.96183  eV     1   --> A'             
     e(  2 -  2) =    -24.69777  eV     1   --> A'             
     e(  3 -  3) =    -23.66352  eV     1   --> A''            
     e(  4 -  4) =    -10.44112  eV     1   --> A''            
     e(  5 -  5) =     -8.26787  eV     1   --> A'             
     e(  6 -  6) =     -2.78580  eV     1   --> A''            
     e(  7 -  7) =     -0.75472  eV     1   --> A''            
     e(  8 -  8) =      0.97701  eV     1   --> A'             
     e(  9 -  9) =      1.76918  eV     1   --> A''            
     e( 10 - 10) =      2.73021  eV     1   --> A'             
     e( 11 - 11) =      2.87064  eV     1   --> A'             
     e( 12 - 12) =      6.95756  eV     1   --> A'             
     e( 13 - 13) =     12.78248  eV     1   --> A''            
     e( 14 - 14) =     12.90395  eV     1   --> A'             
     e( 15 - 15) =     12.95246  eV     1   --> A''            
     e( 16 - 16) =     13.03566  eV     1   --> A'             

 **************************************************************************

 **************************************************************************

                    xk=(   0.60833,   0.10104,   0.00000  )

     Band symmetry, C_s (m)     point group:

     e(  1 -  1) =    -27.91389  eV     1   --> A'             
     e(  2 -  2) =    -24.80444  eV     1   --> A'             
     e(  3 -  3) =    -23.58036  eV     1   --> A''            
     e(  4 -  4) =    -10.59147  eV     1   --> A''            
     e(  5 -  5) =     -8.14575  eV     1   --> A'             
     e(  6 -  6) =     -2.98326  eV     1   --> A''            
     e(  7 -  7) =     -0.87078  eV     1   --> A''            
     e(  8 -  8) =      1.06340  eV     1   --> A'             
     e(  9 -  9) =      1.76368  eV     1   --> A''            
     e( 10 - 10) =      2.88411  eV     1   --> A'             
     e( 11 - 11) =      2.95418  eV     1   --> A'             
     e( 12 - 12) =      7.18073  eV     1   --> A'             
     e( 13 - 13) =     12.60083  eV     1   --> A''            
     e( 14 - 14) =     12.75545  eV     1   --> A'             
     e( 15 - 15) =     12.76954  eV     1   --> A''            
     e( 16 - 16) =     12.83632  eV     1   --> A'             

 **************************************************************************

 **************************************************************************

                    xk=(   0.60000,   0.11547,   0.00000  )

     Band symmetry, C_s (m)     point group:

     e(  1 -  1) =    -27.85965  eV     1   --> A'             
     e(  2 -  2) =    -24.91380  eV     1   --> A'             
     e(  3 -  3) =    -23.49861  eV     1   --> A''            
     e(  4 -  4) =    -10.72821  eV     1   --> A''            
     e(  5 -  5) =     -8.03767  eV     1   --> A'             
     e(  6 -  6) =     -3.18564  eV     1   --> A''            
     e(  7 -  7) =     -0.97821  eV     1   --> A''            
     e(  8 -  8) =      1.13474  eV     1   --> A'             
     e(  9 -  9) =      1.76989  eV     1   --> A''            
     e( 10 - 10) =      2.89034  eV     1   --> A'             
     e( 11 - 11) =      3.21223  eV     1   --> A'             
     e( 12 - 12) =      7.41305  eV     1   --> A'             
     e( 13 - 13) =     12.43287  eV     1   --> A''            
     e( 14 - 14) =     12.60014  eV     1   --> A''            
     e( 15 - 15) =     12.61697  eV     1   --> A'             
     e( 16 - 16) =     12.64398  eV     1   --> A'             

 **************************************************************************

 **************************************************************************

                    xk=(   0.59167,   0.12990,   0.00000  )

     Band symmetry, C_s (m)     point group:

     e(  1 -  1) =    -27.79979  eV     1   --> A'             
     e(  2 -  2) =    -25.02568  eV     1   --> A'             
     e(  3 -  3) =    -23.41917  eV     1   --> A''            
     e(  4 -  4) =    -10.85538  eV     1   --> A''            
     e(  5 -  5) =     -7.94431  eV     1   --> A'             
     e(  6 -  6) =     -3.38810  eV     1   --> A''            
     e(  7 -  7) =     -1.07730  eV     1   --> A''            
     e(  8 -  8) =      1.19182  eV     1   --> A'             
     e(  9 -  9) =      1.78398  eV     1   --> A''            
     e( 10 - 10) =      2.89270  eV     1   --> A'             
     e( 11 - 11) =      3.50284  eV     1   --> A'             
     e( 12 - 12) =      7.64840  eV     1   --> A'             
     e( 13 - 13) =     12.27807  eV     1   --> A''            
     e( 14 - 14) =     12.44427  eV     1   --> A''            
     e( 15 - 15) =     12.45584  eV     1   --> A'             
     e( 16 - 16) =     12.48907  eV     1   --> A'             

 **************************************************************************

 **************************************************************************

                    xk=(   0.58333,   0.14434,   0.00000  )

     Band symmetry, C_s (m)     point group:

     e(  1 -  1) =    -27.73484  eV     1   --> A'             
     e(  2 -  2) =    -25.13889  eV     1   --> A'             
     e(  3 -  3) =    -23.34292  eV     1   --> A''            
     e(  4 -  4) =    -10.97121  eV     1   --> A''            
     e(  5 -  5) =     -7.86432  eV     1   --> A'             
     e(  6 -  6) =     -3.58512  eV     1   --> A''            
     e(  7 -  7) =     -1.16821  eV     1   --> A''            
     e(  8 -  8) =      1.23590  eV     1   --> A'             
     e(  9 -  9) =      1.80280  eV     1   --> A''            
     e( 10 - 10) =      2.89366  eV     1   --> A'             
     e( 11 - 11) =      3.82462  eV     1   --> A'             
     e( 12 - 12) =      7.88121  eV     1   --> A'             
     e( 13 - 13) =     12.13670  eV     1   --> A''            
     e( 14 - 14) =     12.26767  eV     1   --> A'             
     e( 15 - 15) =     12.30193  eV     1   --> A''            
     e( 16 - 16) =     12.37191  eV     1   --> A'             

 **************************************************************************

 **************************************************************************

                    xk=(   0.57500,   0.15877,   0.00000  )

     Band symmetry, C_s (m)     point group:

     e(  1 -  1) =    -27.66536  eV     1   --> A'             
     e(  2 -  2) =    -25.25291  eV     1   --> A'             
     e(  3 -  3) =    -23.27067  eV     1   --> A''            
     e(  4 -  4) =    -11.07652  eV     1   --> A''            
     e(  5 -  5) =     -7.79689  eV     1   --> A'             
     e(  6 -  6) =     -3.77352  eV     1   --> A''            
     e(  7 -  7) =     -1.25093  eV     1   --> A''            
     e(  8 -  8) =      1.26849  eV     1   --> A'             
     e(  9 -  9) =      1.82431  eV     1   --> A''            
     e( 10 - 10) =      2.89437  eV     1   --> A'             
     e( 11 - 11) =      4.17578  eV     1   --> A'             
     e( 12 - 12) =      8.10682  eV     1   --> A'             
     e( 13 - 13) =     12.00867  eV     1   --> A''            
     e( 14 - 14) =     12.07182  eV     1   --> A'             
     e( 15 - 15) =     12.17312  eV     1   --> A''            
     e( 16 - 16) =     12.26596  eV     1   --> A'             

 **************************************************************************

 **************************************************************************

                    xk=(   0.56667,   0.17321,   0.00000  )

     Band symmetry, C_s (m)     point group:

     e(  1 -  1) =    -27.59205  eV     1   --> A'             
     e(  2 -  2) =    -25.36640  eV     1   --> A'             
     e(  3 -  3) =    -23.20311  eV     1   --> A''            
     e(  4 -  4) =    -11.17017  eV     1   --> A''            
     e(  5 -  5) =     -7.74032  eV     1   --> A'             
     e(  6 -  6) =     -3.94924  eV     1   --> A''            
     e(  7 -  7) =     -1.32526  eV     1   --> A''            
     e(  8 -  8) =      1.29149  eV     1   --> A'             
     e(  9 -  9) =      1.84680  eV     1   --> A''            
     e( 10 - 10) =      2.89570  eV     1   --> A'             
     e( 11 - 11) =      4.55456  eV     1   --> A'             
     e( 12 - 12) =      8.32073  eV     1   --> A'             
     e( 13 - 13) =     11.85617  eV     1   --> A'             
     e( 14 - 14) =     11.89416  eV     1   --> A''            
     e( 15 - 15) =     12.05787  eV     1   --> A''            
     e( 16 - 16) =     12.17148  eV     1   --> A'             

 **************************************************************************

 **************************************************************************

                    xk=(   0.55833,   0.18764,   0.00000  )

     Band symmetry, C_s (m)     point group:

     e(  1 -  1) =    -27.51663  eV     1   --> A'             
     e(  2 -  2) =    -25.47814  eV     1   --> A'             
     e(  3 -  3) =    -23.14151  eV     1   --> A''            
     e(  4 -  4) =    -11.25383  eV     1   --> A''            
     e(  5 -  5) =     -7.69476  eV     1   --> A'             
     e(  6 -  6) =     -4.11064  eV     1   --> A''            
     e(  7 -  7) =     -1.39139  eV     1   --> A''            
     e(  8 -  8) =      1.30666  eV     1   --> A'             
     e(  9 -  9) =      1.86831  eV     1   --> A''            
     e( 10 - 10) =      2.89752  eV     1   --> A'             
     e( 11 - 11) =      4.95843  eV     1   --> A'             
     e( 12 - 12) =      8.51869  eV     1   --> A'             
     e( 13 - 13) =     11.60245  eV     1   --> A'             
     e( 14 - 14) =     11.79296  eV     1   --> A''            
     e( 15 - 15) =     11.95616  eV     1   --> A''            
     e( 16 - 16) =     12.08863  eV     1   --> A'             

 **************************************************************************

 **************************************************************************

                    xk=(   0.55000,   0.20207,   0.00000  )

     Band symmetry, C_s (m)     point group:

     e(  1 -  1) =    -27.44023  eV     1   --> A'             
     e(  2 -  2) =    -25.58657  eV     1   --> A'             
     e(  3 -  3) =    -23.08612  eV     1   --> A''            
     e(  4 -  4) =    -11.32582  eV     1   --> A''            
     e(  5 -  5) =     -7.65715  eV     1   --> A'             
     e(  6 -  6) =     -4.25443  eV     1   --> A''            
     e(  7 -  7) =     -1.44901  eV     1   --> A''            
     e(  8 -  8) =      1.31586  eV     1   --> A'             
     e(  9 -  9) =      1.88876  eV     1   --> A''            
     e( 10 - 10) =      2.89984  eV     1   --> A'             
     e( 11 - 11) =      5.38528  eV     1   --> A'             
     e( 12 - 12) =      8.69722  eV     1   --> A'             
     e( 13 - 13) =     11.29161  eV     1   --> A'             
     e( 14 - 14) =     11.70530  eV     1   --> A''            
     e( 15 - 15) =     11.86801  eV     1   --> A''            
     e( 16 - 16) =     12.01750  eV     1   --> A'             

 **************************************************************************

 **************************************************************************

                    xk=(   0.54167,   0.21651,   0.00000  )

     Band symmetry, C_s (m)     point group:

     e(  1 -  1) =    -27.36471  eV     1   --> A'             
     e(  2 -  2) =    -25.68906  eV     1   --> A'             
     e(  3 -  3) =    -23.03787  eV     1   --> A''            
     e(  4 -  4) =    -11.38690  eV     1   --> A''            
     e(  5 -  5) =     -7.62715  eV     1   --> A'             
     e(  6 -  6) =     -4.37902  eV     1   --> A''            
     e(  7 -  7) =     -1.49787  eV     1   --> A''            
     e(  8 -  8) =      1.32084  eV     1   --> A'             
     e(  9 -  9) =      1.90706  eV     1   --> A''            
     e( 10 - 10) =      2.90255  eV     1   --> A'             
     e( 11 - 11) =      5.83232  eV     1   --> A'             
     e( 12 - 12) =      8.85301  eV     1   --> A'             
     e( 13 - 13) =     10.91418  eV     1   --> A'             
     e( 14 - 14) =     11.63109  eV     1   --> A''            
     e( 15 - 15) =     11.79341  eV     1   --> A''            
     e( 16 - 16) =     11.95801  eV     1   --> A'             

 **************************************************************************

 **************************************************************************

                    xk=(   0.53333,   0.23094,   0.00000  )

     Band symmetry, C_s (m)     point group:

     e(  1 -  1) =    -27.29332  eV     1   --> A'             
     e(  2 -  2) =    -25.78296  eV     1   --> A'             
     e(  3 -  3) =    -22.99757  eV     1   --> A''            
     e(  4 -  4) =    -11.43698  eV     1   --> A''            
     e(  5 -  5) =     -7.60393  eV     1   --> A'             
     e(  6 -  6) =     -4.48312  eV     1   --> A''            
     e(  7 -  7) =     -1.53808  eV     1   --> A''            
     e(  8 -  8) =      1.32296  eV     1   --> A'             
     e(  9 -  9) =      1.92255  eV     1   --> A''            
     e( 10 - 10) =      2.90511  eV     1   --> A'             
     e( 11 - 11) =      6.29603  eV     1   --> A'             
     e( 12 - 12) =      8.98331  eV     1   --> A'             
     e( 13 - 13) =     10.47868  eV     1   --> A'             
     e( 14 - 14) =     11.57035  eV     1   --> A''            
     e( 15 - 15) =     11.73238  eV     1   --> A''            
     e( 16 - 16) =     11.90997  eV     1   --> A'             

 **************************************************************************

 **************************************************************************

                    xk=(   0.52500,   0.24537,   0.00000  )

     Band symmetry, C_s (m)     point group:

     e(  1 -  1) =    -27.22951  eV     1   --> A'             
     e(  2 -  2) =    -25.86455  eV     1   --> A'             
     e(  3 -  3) =    -22.96565  eV     1   --> A''            
     e(  4 -  4) =    -11.47645  eV     1   --> A''            
     e(  5 -  5) =     -7.58636  eV     1   --> A'             
     e(  6 -  6) =     -4.56576  eV     1   --> A''            
     e(  7 -  7) =     -1.56949  eV     1   --> A''            
     e(  8 -  8) =      1.32339  eV     1   --> A'             
     e(  9 -  9) =      1.93489  eV     1   --> A''            
     e( 10 - 10) =      2.90733  eV     1   --> A'             
     e( 11 - 11) =      6.77150  eV     1   --> A'             
     e( 12 - 12) =      9.08631  eV     1   --> A'             
     e( 13 - 13) =     10.00605  eV     1   --> A'             
     e( 14 - 14) =     11.52305  eV     1   --> A''            
     e( 15 - 15) =     11.68490  eV     1   --> A''            
     e( 16 - 16) =     11.87311  eV     1   --> A'             

 **************************************************************************

 **************************************************************************

                    xk=(   0.51667,   0.25981,   0.00000  )

     Band symmetry, C_s (m)     point group:

     e(  1 -  1) =    -27.17775  eV     1   --> A'             
     e(  2 -  2) =    -25.92863  eV     1   --> A'             
     e(  3 -  3) =    -22.94244  eV     1   --> A''            
     e(  4 -  4) =    -11.50427  eV     1   --> A''            
     e(  5 -  5) =     -7.57418  eV     1   --> A'             
     e(  6 -  6) =     -4.62511  eV     1   --> A''            
     e(  7 -  7) =     -1.59195  eV     1   --> A''            
     e(  8 -  8) =      1.32311  eV     1   --> A'             
     e(  9 -  9) =      1.94399  eV     1   --> A''            
     e( 10 - 10) =      2.90906  eV     1   --> A'             
     e( 11 - 11) =      7.24800  eV     1   --> A'             
     e( 12 - 12) =      9.16072  eV     1   --> A'             
     e( 13 - 13) =      9.52170  eV     1   --> A'             
     e( 14 - 14) =     11.48929  eV     1   --> A''            
     e( 15 - 15) =     11.65099  eV     1   --> A''            
     e( 16 - 16) =     11.84712  eV     1   --> A'             

 **************************************************************************

 **************************************************************************

                    xk=(   0.50833,   0.27424,   0.00000  )

     Band symmetry, C_s (m)     point group:

     e(  1 -  1) =    -27.14358  eV     1   --> A'             
[...]
     e(  5 -  5) =     -8.21876  eV     1   --> A''            
     e(  6 -  6) =     -7.13816  eV     1   --> A'             
     e(  7 -  7) =     -3.93641  eV     1   --> A'             
     e(  8 -  8) =     -1.74883  eV     1   --> A'             
     e(  9 -  9) =      4.53837  eV     1   --> A'             
     e( 10 - 10) =      5.10538  eV     1   --> A'             
     e( 11 - 11) =      5.23985  eV     1   --> A'             
     e( 12 - 12) =      6.45194  eV     1   --> A'             
     e( 13 - 13) =      7.32717  eV     1   --> A'             
     e( 14 - 14) =      9.59711  eV     1   --> A'             
     e( 15 - 15) =      9.63890  eV     1   --> A''            
     e( 16 - 16) =     10.82050  eV     1   --> A'             

 **************************************************************************

 **************************************************************************

                    xk=(   0.21667,   0.12509,   0.00000  )

     Band symmetry, C_s (m)     point group:

     e(  1 -  1) =    -25.57500  eV     1   --> A'             
     e(  2 -  2) =    -24.74635  eV     1   --> A''            
     e(  3 -  3) =    -23.61952  eV     1   --> A'             
     e(  4 -  4) =    -15.07033  eV     1   --> A'             
     e(  5 -  5) =     -8.53681  eV     1   --> A''            
     e(  6 -  6) =     -7.59788  eV     1   --> A'             
     e(  7 -  7) =     -4.10461  eV     1   --> A'             
     e(  8 -  8) =     -1.28240  eV     1   --> A'             
     e(  9 -  9) =      4.70288  eV     1   --> A'             
     e( 10 - 10) =      4.86911  eV     1   --> A'             
     e( 11 - 11) =      4.99802  eV     1   --> A'             
     e( 12 - 12) =      6.21676  eV     1   --> A'             
     e( 13 - 13) =      7.09574  eV     1   --> A'             
     e( 14 - 14) =      9.37651  eV     1   --> A'             
     e( 15 - 15) =      9.83763  eV     1   --> A''            
     e( 16 - 16) =     10.70810  eV     1   --> A'             

 **************************************************************************

 **************************************************************************

                    xk=(   0.20000,   0.11547,   0.00000  )

     Band symmetry, C_s (m)     point group:

     e(  1 -  1) =    -25.42562  eV     1   --> A'             
     e(  2 -  2) =    -24.62521  eV     1   --> A''            
     e(  3 -  3) =    -23.66725  eV     1   --> A'             
     e(  4 -  4) =    -15.24306  eV     1   --> A'             
     e(  5 -  5) =     -8.84722  eV     1   --> A''            
     e(  6 -  6) =     -8.04030  eV     1   --> A'             
     e(  7 -  7) =     -4.26048  eV     1   --> A'             
     e(  8 -  8) =     -0.82159  eV     1   --> A'             
     e(  9 -  9) =      4.64948  eV     1   --> A'             
     e( 10 - 10) =      4.76266  eV     1   --> A'             
     e( 11 - 11) =      4.86659  eV     1   --> A'             
     e( 12 - 12) =      5.99850  eV     1   --> A'             
     e( 13 - 13) =      6.87977  eV     1   --> A'             
     e( 14 - 14) =      9.16915  eV     1   --> A'             
     e( 15 - 15) =     10.04173  eV     1   --> A''            
     e( 16 - 16) =     10.57222  eV     1   --> A'             

 **************************************************************************

 **************************************************************************

                    xk=(   0.18333,   0.10585,   0.00000  )

     Band symmetry, C_s (m)     point group:

     e(  1 -  1) =    -25.27922  eV     1   --> A'             
     e(  2 -  2) =    -24.50488  eV     1   --> A''            
     e(  3 -  3) =    -23.70983  eV     1   --> A'             
     e(  4 -  4) =    -15.40290  eV     1   --> A'             
     e(  5 -  5) =     -9.14713  eV     1   --> A''            
     e(  6 -  6) =     -8.46255  eV     1   --> A'             
     e(  7 -  7) =     -4.40417  eV     1   --> A'             
     e(  8 -  8) =     -0.36901  eV     1   --> A'             
     e(  9 -  9) =      4.44682  eV     1   --> A'             
     e( 10 - 10) =      4.56094  eV     1   --> A'             
     e( 11 - 11) =      5.00225  eV     1   --> A'             
     e( 12 - 12) =      5.79736  eV     1   --> A'             
     e( 13 - 13) =      6.67993  eV     1   --> A'             
     e( 14 - 14) =      8.97644  eV     1   --> A'             
     e( 15 - 15) =     10.24935  eV     1   --> A''            
     e( 16 - 16) =     10.42661  eV     1   --> A'             

 **************************************************************************

 **************************************************************************

                    xk=(   0.16667,   0.09623,   0.00000  )

     Band symmetry, C_s (m)     point group:

     e(  1 -  1) =    -25.13873  eV     1   --> A'             
     e(  2 -  2) =    -24.38663  eV     1   --> A''            
     e(  3 -  3) =    -23.74578  eV     1   --> A'             
     e(  4 -  4) =    -15.54999  eV     1   --> A'             
     e(  5 -  5) =     -9.43399  eV     1   --> A''            
     e(  6 -  6) =     -8.86219  eV     1   --> A'             
     e(  7 -  7) =     -4.53574  eV     1   --> A'             
     e(  8 -  8) =      0.07125  eV     1   --> A'             
     e(  9 -  9) =      4.26130  eV     1   --> A'             
     e( 10 - 10) =      4.37202  eV     1   --> A'             
     e( 11 - 11) =      5.13064  eV     1   --> A'             
     e( 12 - 12) =      5.61353  eV     1   --> A'             
     e( 13 - 13) =      6.49660  eV     1   --> A'             
     e( 14 - 14) =      8.79924  eV     1   --> A'             
     e( 15 - 15) =     10.28082  eV     1   --> A'             
     e( 16 - 16) =     10.45834  eV     1   --> A''            

 **************************************************************************

 **************************************************************************

                    xk=(   0.15000,   0.08660,   0.00000  )

     Band symmetry, C_s (m)     point group:

     e(  1 -  1) =    -25.00713  eV     1   --> A'             
     e(  2 -  2) =    -24.27195  eV     1   --> A''            
     e(  3 -  3) =    -23.77343  eV     1   --> A'             
     e(  4 -  4) =    -15.68337  eV     1   --> A'             
     e(  5 -  5) =     -9.70431  eV     1   --> A''            
     e(  6 -  6) =     -9.23548  eV     1   --> A'             
     e(  7 -  7) =     -4.65506  eV     1   --> A'             
     e(  8 -  8) =      0.49495  eV     1   --> A'             
     e(  9 -  9) =      4.09315  eV     1   --> A'             
     e( 10 - 10) =      4.20066  eV     1   --> A'             
     e( 11 - 11) =      5.24678  eV     1   --> A'             
     e( 12 - 12) =      5.44741  eV     1   --> A'             
     e( 13 - 13) =      6.33019  eV     1   --> A'             
     e( 14 - 14) =      8.63809  eV     1   --> A'             
     e( 15 - 15) =     10.14105  eV     1   --> A'             
     e( 16 - 16) =     10.66612  eV     1   --> A''            

 **************************************************************************

 **************************************************************************

                    xk=(   0.13333,   0.07698,   0.00000  )

     Band symmetry, C_s (m)     point group:

     e(  1 -  1) =    -24.88788  eV     1   --> A'             
     e(  2 -  2) =    -24.16304  eV     1   --> A''            
     e(  3 -  3) =    -23.79130  eV     1   --> A'             
     e(  4 -  4) =    -15.80343  eV     1   --> A'             
     e(  5 -  5) =     -9.95588  eV     1   --> A''            
     e(  6 -  6) =     -9.58065  eV     1   --> A'             
     e(  7 -  7) =     -4.76217  eV     1   --> A'             
     e(  8 -  8) =      0.89876  eV     1   --> A'             
     e(  9 -  9) =      3.94242  eV     1   --> A'             
     e( 10 - 10) =      4.04719  eV     1   --> A'             
     e( 11 - 11) =      5.29440  eV     1   --> A'             
     e( 12 - 12) =      5.35499  eV     1   --> A'             
     e( 13 - 13) =      6.18080  eV     1   --> A'             
     e( 14 - 14) =      8.49335  eV     1   --> A'             
     e( 15 - 15) =     10.01079  eV     1   --> A'             
     e( 16 - 16) =     10.86963  eV     1   --> A''            

 **************************************************************************

 **************************************************************************

                    xk=(   0.11667,   0.06736,   0.00000  )

     Band symmetry, C_s (m)     point group:

     e(  1 -  1) =    -24.78420  eV     1   --> A'             
     e(  2 -  2) =    -24.06092  eV     1   --> A''            
     e(  3 -  3) =    -23.79761  eV     1   --> A'             
     e(  4 -  4) =    -15.90925  eV     1   --> A'             
     e(  5 -  5) =    -10.18546  eV     1   --> A''            
     e(  6 -  6) =     -9.89451  eV     1   --> A'             
     e(  7 -  7) =     -4.85695  eV     1   --> A'             
     e(  8 -  8) =      1.28107  eV     1   --> A'             
     e(  9 -  9) =      3.80930  eV     1   --> A'             
     e( 10 - 10) =      3.91169  eV     1   --> A'             
     e( 11 - 11) =      5.16499  eV     1   --> A'             
     e( 12 - 12) =      5.44490  eV     1   --> A'             
     e( 13 - 13) =      6.04873  eV     1   --> A'             
     e( 14 - 14) =      8.36527  eV     1   --> A'             
     e( 15 - 15) =      9.89276  eV     1   --> A'             
     e( 16 - 16) =     11.06542  eV     1   --> A''            

 **************************************************************************

 **************************************************************************

                    xk=(   0.10000,   0.05774,   0.00000  )

     Band symmetry, C_s (m)     point group:

     e(  1 -  1) =    -24.69881  eV     1   --> A'             
     e(  2 -  2) =    -23.96795  eV     1   --> A''            
     e(  3 -  3) =    -23.79210  eV     1   --> A'             
     e(  4 -  4) =    -16.00030  eV     1   --> A'             
     e(  5 -  5) =    -10.39074  eV     1   --> A''            
     e(  6 -  6) =    -10.17428  eV     1   --> A'             
     e(  7 -  7) =     -4.93930  eV     1   --> A'             
     e(  8 -  8) =      1.63355  eV     1   --> A'             
     e(  9 -  9) =      3.69392  eV     1   --> A'             
     e( 10 - 10) =      3.79421  eV     1   --> A'             
     e( 11 - 11) =      5.05100  eV     1   --> A'             
     e( 12 - 12) =      5.52463  eV     1   --> A'             
     e( 13 - 13) =      5.93417  eV     1   --> A'             
     e( 14 - 14) =      8.25401  eV     1   --> A'             
     e( 15 - 15) =      9.78854  eV     1   --> A'             
     e( 16 - 16) =     11.24938  eV     1   --> A''            

 **************************************************************************

 **************************************************************************

                    xk=(   0.08333,   0.04811,   0.00000  )

     Band symmetry, C_s (m)     point group:

     e(  1 -  1) =    -24.63281  eV     1   --> A'             
     e(  2 -  2) =    -23.88560  eV     1   --> A''            
     e(  3 -  3) =    -23.77643  eV     1   --> A'             
     e(  4 -  4) =    -16.07845  eV     1   --> A'             
     e(  5 -  5) =    -10.56912  eV     1   --> A''            
     e(  6 -  6) =    -10.41710  eV     1   --> A'             
     e(  7 -  7) =     -5.00914  eV     1   --> A'             
     e(  8 -  8) =      1.94785  eV     1   --> A'             
     e(  9 -  9) =      3.59608  eV     1   --> A'             
     e( 10 - 10) =      3.69478  eV     1   --> A'             
     e( 11 - 11) =      4.95439  eV     1   --> A'             
     e( 12 - 12) =      5.59221  eV     1   --> A'             
     e( 13 - 13) =      5.83694  eV     1   --> A'             
     e( 14 - 14) =      8.15972  eV     1   --> A'             
     e( 15 - 15) =      9.69873  eV     1   --> A'             
     e( 16 - 16) =     11.41703  eV     1   --> A''            

 **************************************************************************

 **************************************************************************

                    xk=(   0.06667,   0.03849,   0.00000  )

     Band symmetry, C_s (m)     point group:

     e(  1 -  1) =    -24.58510  eV     1   --> A'             
     e(  2 -  2) =    -23.81560  eV     1   --> A''            
     e(  3 -  3) =    -23.75371  eV     1   --> A'             
     e(  4 -  4) =    -16.14251  eV     1   --> A'             
     e(  5 -  5) =    -10.71851  eV     1   --> A''            
     e(  6 -  6) =    -10.62030  eV     1   --> A'             
     e(  7 -  7) =     -5.06643  eV     1   --> A'             
     e(  8 -  8) =      2.21902  eV     1   --> A'             
     e(  9 -  9) =      3.51597  eV     1   --> A'             
     e( 10 - 10) =      3.61340  eV     1   --> A'             
     e( 11 - 11) =      4.87528  eV     1   --> A'             
     e( 12 - 12) =      5.64750  eV     1   --> A'             
     e( 13 - 13) =      5.75729  eV     1   --> A'             
     e( 14 - 14) =      8.08247  eV     1   --> A'             
     e( 15 - 15) =      9.62433  eV     1   --> A'             
     e( 16 - 16) =     11.56359  eV     1   --> A''            

 **************************************************************************

 **************************************************************************

                    xk=(   0.05000,   0.02887,   0.00000  )

     Band symmetry, C_s (m)     point group:

     e(  1 -  1) =    -24.55291  eV     1   --> A'             
     e(  2 -  2) =    -23.75907  eV     1   --> A''            
     e(  3 -  3) =    -23.72840  eV     1   --> A'             
     e(  4 -  4) =    -16.19169  eV     1   --> A'             
     e(  5 -  5) =    -10.83644  eV     1   --> A''            
     e(  6 -  6) =    -10.78109  eV     1   --> A'             
     e(  7 -  7) =     -5.11103  eV     1   --> A'             
     e(  8 -  8) =      2.44035  eV     1   --> A'             
     e(  9 -  9) =      3.45371  eV     1   --> A'             
     e( 10 - 10) =      3.55011  eV     1   --> A'             
     e( 11 - 11) =      4.81373  eV     1   --> A'             
     e( 12 - 12) =      5.69058  eV     1   --> A'             
     e( 13 - 13) =      5.69535  eV     1   --> A'             
     e( 14 - 14) =      8.02233  eV     1   --> A'             
     e( 15 - 15) =      9.56605  eV     1   --> A'             
     e( 16 - 16) =     11.68421  eV     1   --> A''            

 **************************************************************************

 **************************************************************************

                    xk=(   0.03333,   0.01925,   0.00000  )

     Band symmetry, C_s (m)     point group:

     e(  1 -  1) =    -24.53292  eV     1   --> A'             
     e(  2 -  2) =    -23.71803  eV     1   --> A''            
     e(  3 -  3) =    -23.70581  eV     1   --> A'             
     e(  4 -  4) =    -16.22735  eV     1   --> A'             
     e(  5 -  5) =    -10.92228  eV     1   --> A''            
     e(  6 -  6) =    -10.89755  eV     1   --> A'             
     e(  7 -  7) =     -5.14294  eV     1   --> A'             
     e(  8 -  8) =      2.60435  eV     1   --> A'             
     e(  9 -  9) =      3.40916  eV     1   --> A'             
     e( 10 - 10) =      3.50489  eV     1   --> A'             
     e( 11 - 11) =      4.76976  eV     1   --> A'             
     e( 12 - 12) =      5.65101  eV     1   --> A'             
     e( 13 - 13) =      5.72136  eV     1   --> A'             
     e( 14 - 14) =      7.97934  eV     1   --> A'             
     e( 15 - 15) =      9.52398  eV     1   --> A'             
     e( 16 - 16) =     11.77426  eV     1   --> A''            

 **************************************************************************

 **************************************************************************

                    xk=(   0.01667,   0.00962,   0.00000  )

     Band symmetry, C_s (m)     point group:

     e(  1 -  1) =    -24.52221  eV     1   --> A'             
     e(  2 -  2) =    -23.69326  eV     1   --> A''            
     e(  3 -  3) =    -23.68999  eV     1   --> A'             
     e(  4 -  4) =    -16.24849  eV     1   --> A'             
     e(  5 -  5) =    -10.97437  eV     1   --> A''            
     e(  6 -  6) =    -10.96774  eV     1   --> A'             
     e(  7 -  7) =     -5.16208  eV     1   --> A'             
     e(  8 -  8) =      2.70488  eV     1   --> A'             
     e(  9 -  9) =      3.38245  eV     1   --> A'             
     e( 10 - 10) =      3.47776  eV     1   --> A'             
     e( 11 - 11) =      4.74337  eV     1   --> A'             
     e( 12 - 12) =      5.62441  eV     1   --> A'             
     e( 13 - 13) =      5.73988  eV     1   --> A'             
     e( 14 - 14) =      7.95354  eV     1   --> A'             
     e( 15 - 15) =      9.49867  eV     1   --> A'             
     e( 16 - 16) =     11.83036  eV     1   -->   ?

 **************************************************************************

 **************************************************************************

                    xk=(   0.00000,   0.00000,   0.00000  )

     point group C_6v (6mm) 
     there are  6 classes
     the character table:

       E     2C6   2C3   C2    3s_v  3s_d 
A_1    1.00  1.00  1.00  1.00  1.00  1.00
A_2    1.00  1.00  1.00  1.00 -1.00 -1.00
B_1    1.00 -1.00  1.00 -1.00  1.00 -1.00
B_2    1.00 -1.00  1.00 -1.00 -1.00  1.00
E_1    2.00  1.00 -1.00 -2.00  0.00  0.00
E_2    2.00 -1.00 -1.00  2.00  0.00  0.00

     the symmetry operations in each class and the name of the first element:

     E        1
                                                                 
     2C6      3    4
                                                                 
     2C3      5    6
                                                                 
     C2       2
                                                                 
     3s_v     8   12   11
                                                                 
     3s_d     7    9   10
                                                                 

     Band symmetry, C_6v (6mm)  point group:

     e(  1 -  1) =    -24.51887  eV     1   --> A_1            
     e(  2 -  3) =    -23.68500  eV     2   --> E_2            
     e(  4 -  4) =    -16.25589  eV     1   --> A_1            
     e(  5 -  6) =    -10.99198  eV     2   --> E_1            
     e(  7 -  7) =     -5.16852  eV     1   --> A_1            
     e(  8 -  8) =      2.74062  eV     1   --> B_1            
     e(  9 -  9) =      3.37352  eV     1   --> A_1            
     e( 10 - 10) =      3.46871  eV     1   --> A_1            
     e( 11 - 11) =      4.73457  eV     1   --> A_1            
     e( 12 - 12) =      5.61551  eV     1   --> A_1            
     e( 13 - 13) =      5.74598  eV     1   --> B_1            
     e( 14 - 14) =      7.94493  eV     1   --> A_1            
     e( 15 - 15) =      9.49015  eV     1   --> A_1            
     e( 16 - 16) =     11.84877  eV     1   -->   ?

 **************************************************************************

     BANDS        :      4.38s CPU      4.75s WALL


   This run was terminated on:   4:28:30  19Mar2025            

=------------------------------------------------------------------------------=
   JOB DONE.
=------------------------------------------------------------------------------=
