
     Program PWSCF v.7.4.1 starts on 16Apr2025 at 14:39:22 

     This program is part of the open-source Quantum ESPRESSO suite
     for quantum simulation of materials; please cite
         "P. Giannozzi et al., J. Phys.:Condens. Matter 21 395502 (2009);
         "P. Giannozzi et al., J. Phys.:Condens. Matter 29 465901 (2017);
         "P. Giannozzi et al., J. Chem. Phys. 152 154105 (2020);
          URL http://www.quantum-espresso.org", 
     in publications or presentations arising from this work. More details at
     http://www.quantum-espresso.org/quote

     Parallel version (MPI), running on     7 processors

     MPI processes distributed on     1 nodes
     13593 MiB available memory on the printing compute node when the environment starts

     Waiting for input...
     Reading input from standard input

     Current dimensions of program PWSCF are:
     Max number of different atomic species (ntypx) = 10
     Max number of k-points (npk) =  40000
     Max angular momentum in pseudopotentials (lmaxx) =  4

     R & G space division:  proc/nbgrp/npool/nimage =       7
     Subspace diagonalization in iterative solution of the eigenvalue problem:
     a serial algorithm will be used


     Parallelization info
     --------------------
     sticks:   dense  smooth     PW     G-vecs:    dense   smooth      PW
     Min          21      21      7                 1345     1345     271
     Max          22      22      8                 1372     1372     290
     Sum         151     151     55                 9519     9519    1981

     Using Slab Decomposition



     bravais-lattice index     =            4
     lattice parameter (alat)  =       4.6561  a.u.
     unit-cell volume          =     532.1899 (a.u.)^3
     number of atoms/cell      =            8
     number of atomic types    =            1
     number of electrons       =        32.00
     number of Kohn-Sham states=           20
     kinetic-energy cutoff     =      26.0000  Ry
     charge density cutoff     =     104.0000  Ry
     scf convergence threshold =      1.0E-08
     mixing beta               =       0.7000
     number of iterations used =            8  plain     mixing
     Exchange-correlation= PBE
                           (   1   4   3   4   0   0   0)

     celldm(1)=   4.656107  celldm(2)=   0.000000  celldm(3)=   6.087896
     celldm(4)=   0.000000  celldm(5)=   0.000000  celldm(6)=   0.000000

     crystal axes: (cart. coord. in units of alat)
               a(1) = (   1.000000   0.000000   0.000000 )  
               a(2) = (  -0.500000   0.866025   0.000000 )  
               a(3) = (   0.000000   0.000000   6.087896 )  

     reciprocal axes: (cart. coord. in units 2 pi/alat)
               b(1) = (  1.000000  0.577350 -0.000000 )  
               b(2) = (  0.000000  1.154701  0.000000 )  
               b(3) = (  0.000000 -0.000000  0.164260 )  


     PseudoPot. # 1 for C  read from file:
     /home/rfa/Skripsi/DFT/dft-graphene/pseudo/C.pbe-n-rrkjus_psl.0.1.UPF
     MD5 check sum: 96a6a315177d77e6c95bf6fd3870f9e3
     Pseudo is Ultrasoft + core correction, Zval =  4.0
     Generated using &quot;atomic&quot; code by A. Dal Corso  v.6.3MaX
     Using radial grid of 1073 points,  4 beta functions with: 
                l(1) =   0
                l(2) =   0
                l(3) =   1
                l(4) =   1
     Q(r) pseudized with 0 coefficients 


     atomic species   valence    mass     pseudopotential
     C                 4.00    12.01070     C ( 1.00)

     12 Sym. Ops. (no inversion) found



   Cartesian axes

     site n.     atom                  positions (alat units)
         1        C      tau(   1) = (   0.0000000   0.5773503   3.0439478  )
         2        C      tau(   2) = (   0.5000000   0.2886751   3.0439478  )
         3        C      tau(   3) = (   0.0000000   0.5773503   3.2468777  )
         4        C      tau(   4) = (   0.5000000   0.2886751   3.2468777  )
         5        C      tau(   5) = (   0.0000000   0.5773503   3.4498075  )
         6        C      tau(   6) = (   0.5000000   0.2886751   3.4498075  )
         7        C      tau(   7) = (   0.0000000   0.5773503   3.6527374  )
         8        C      tau(   8) = (   0.5000000   0.2886751   3.6527374  )

     number of k points=    19  Marzari-Vanderbilt smearing, width (Ry)=  0.0200
                       cart. coord. in units 2pi/alat
        k(    1) = (   0.0000000   0.0000000   0.0000000), wk =   0.0138889
        k(    2) = (   0.0000000   0.0962250   0.0000000), wk =   0.0833333
        k(    3) = (   0.0000000   0.1924501   0.0000000), wk =   0.0833333
        k(    4) = (   0.0000000   0.2886751   0.0000000), wk =   0.0833333
        k(    5) = (   0.0000000   0.3849002   0.0000000), wk =   0.0833333
        k(    6) = (   0.0000000   0.4811252   0.0000000), wk =   0.0833333
        k(    7) = (   0.0000000  -0.5773503   0.0000000), wk =   0.0416667
        k(    8) = (   0.0833333   0.1443376   0.0000000), wk =   0.0833333
        k(    9) = (   0.0833333   0.2405626   0.0000000), wk =   0.1666667
        k(   10) = (   0.0833333   0.3367877   0.0000000), wk =   0.1666667
        k(   11) = (   0.0833333   0.4330127   0.0000000), wk =   0.1666667
        k(   12) = (   0.0833333   0.5292377   0.0000000), wk =   0.1666667
        k(   13) = (   0.1666667   0.2886751   0.0000000), wk =   0.0833333
        k(   14) = (   0.1666667   0.3849002   0.0000000), wk =   0.1666667
        k(   15) = (   0.1666667   0.4811252   0.0000000), wk =   0.1666667
        k(   16) = (   0.1666667   0.5773503   0.0000000), wk =   0.0833333
        k(   17) = (   0.2500000   0.4330127   0.0000000), wk =   0.0833333
        k(   18) = (   0.2500000   0.5292377   0.0000000), wk =   0.1666667
        k(   19) = (   0.3333333   0.5773503   0.0000000), wk =   0.0277778

     Dense  grid:     9519 G-vectors     FFT dimensions: (  15,  15,  96)

     Estimated max dynamical RAM per process >       3.60 MB

     Estimated total dynamical RAM >      25.22 MB

     Check: negative core charge=   -0.000106

     Initial potential from superposition of free atoms

     starting charge      31.9997, renormalised to      32.0000

     negative rho (up, down):  8.823E-03 0.000E+00
     Starting wfcs are   32 randomized atomic wfcs

     total cpu time spent up to now is        0.5 secs

     per-process dynamical memory:     9.2 Mb

     Self-consistent Calculation

     iteration #  1     ecut=    26.00 Ry     beta= 0.70
     Davidson diagonalization with overlap
     ethr =  1.00E-02,  avg # of iterations =  7.6

     negative rho (up, down):  1.266E-01 0.000E+00

     total cpu time spent up to now is        0.9 secs

     total energy              =     -16.11279718 Ry
     estimated scf accuracy    <      35.92979701 Ry

     iteration #  2     ecut=    26.00 Ry     beta= 0.70
     Davidson diagonalization with overlap
     ethr =  1.00E-02,  avg # of iterations = 12.4

     negative rho (up, down):  3.411E-04 0.000E+00

     total cpu time spent up to now is        1.5 secs

     total energy              =      30.29325136 Ry
     estimated scf accuracy    <     271.26346509 Ry

     iteration #  3     ecut=    26.00 Ry     beta= 0.70
     Davidson diagonalization with overlap
     ethr =  1.00E-02,  avg # of iterations = 10.1

     negative rho (up, down):  1.963E-03 0.000E+00

     total cpu time spent up to now is        2.0 secs

     total energy              =     -31.09224354 Ry
     estimated scf accuracy    <       5.11759985 Ry

     iteration #  4     ecut=    26.00 Ry     beta= 0.70
     Davidson diagonalization with overlap
     ethr =  1.00E-02,  avg # of iterations =  2.0

     negative rho (up, down):  4.440E-03 0.000E+00

     total cpu time spent up to now is        2.2 secs

     total energy              =     -30.47827219 Ry
     estimated scf accuracy    <       3.24021844 Ry

     iteration #  5     ecut=    26.00 Ry     beta= 0.70
     Davidson diagonalization with overlap
     ethr =  1.00E-02,  avg # of iterations =  1.0

     negative rho (up, down):  5.859E-03 0.000E+00

     total cpu time spent up to now is        2.3 secs

     total energy              =     -30.30342519 Ry
     estimated scf accuracy    <       2.07632598 Ry

     iteration #  6     ecut=    26.00 Ry     beta= 0.70
     Davidson diagonalization with overlap
     ethr =  6.49E-03,  avg # of iterations =  1.6

     negative rho (up, down):  6.962E-03 0.000E+00

     total cpu time spent up to now is        2.5 secs

     total energy              =     -30.20986838 Ry
     estimated scf accuracy    <       1.78461132 Ry

     iteration #  7     ecut=    26.00 Ry     beta= 0.70
     Davidson diagonalization with overlap
     ethr =  5.58E-03,  avg # of iterations =  1.1

     negative rho (up, down):  7.157E-03 0.000E+00

     total cpu time spent up to now is        2.6 secs

     total energy              =     -30.19875974 Ry
     estimated scf accuracy    <       1.57786119 Ry

     iteration #  8     ecut=    26.00 Ry     beta= 0.70
     Davidson diagonalization with overlap
     ethr =  4.93E-03,  avg # of iterations =  1.5

     negative rho (up, down):  6.680E-03 0.000E+00

     total cpu time spent up to now is        2.8 secs

     total energy              =     -30.20844282 Ry
     estimated scf accuracy    <       1.56719295 Ry

     iteration #  9     ecut=    26.00 Ry     beta= 0.70
     Davidson diagonalization with overlap
     ethr =  4.90E-03,  avg # of iterations =  1.0

     negative rho (up, down):  8.479E-03 0.000E+00

     total cpu time spent up to now is        3.0 secs

     total energy              =     -29.88578859 Ry
     estimated scf accuracy    <       1.50887591 Ry

     iteration # 10     ecut=    26.00 Ry     beta= 0.70
     Davidson diagonalization with overlap
     ethr =  4.72E-03,  avg # of iterations =  1.0

     negative rho (up, down):  5.571E-02 0.000E+00

     total cpu time spent up to now is        3.1 secs

     total energy              =     -29.27937587 Ry
     estimated scf accuracy    <       1.05215983 Ry

     iteration # 11     ecut=    26.00 Ry     beta= 0.70
     Davidson diagonalization with overlap
     ethr =  3.29E-03,  avg # of iterations =  2.7

     negative rho (up, down):  1.959E-01 0.000E+00

     total cpu time spent up to now is        3.3 secs

     total energy              =     -29.71758449 Ry
     estimated scf accuracy    <       0.79907214 Ry

     iteration # 12     ecut=    26.00 Ry     beta= 0.70
     Davidson diagonalization with overlap
     ethr =  2.50E-03,  avg # of iterations =  6.0

     negative rho (up, down):  1.383E-01 0.000E+00

     total cpu time spent up to now is        3.6 secs

     total energy              =     -29.42304515 Ry
     estimated scf accuracy    <       2.97050361 Ry

     iteration # 13     ecut=    26.00 Ry     beta= 0.70
     Davidson diagonalization with overlap
     ethr =  2.50E-03,  avg # of iterations =  1.8

     negative rho (up, down):  1.353E-01 0.000E+00

     total cpu time spent up to now is        3.7 secs

     total energy              =     -29.46655772 Ry
     estimated scf accuracy    <       1.29905111 Ry

     iteration # 14     ecut=    26.00 Ry     beta= 0.70
     Davidson diagonalization with overlap
     ethr =  2.50E-03,  avg # of iterations =  1.3

     negative rho (up, down):  1.646E-01 0.000E+00

     total cpu time spent up to now is        3.9 secs

     total energy              =     -29.50968709 Ry
     estimated scf accuracy    <       1.22453826 Ry

     iteration # 15     ecut=    26.00 Ry     beta= 0.70
     Davidson diagonalization with overlap
     ethr =  2.50E-03,  avg # of iterations =  1.4

     negative rho (up, down):  1.572E-01 0.000E+00

     total cpu time spent up to now is        4.1 secs

     total energy              =     -29.47708477 Ry
     estimated scf accuracy    <       1.94577562 Ry

     iteration # 16     ecut=    26.00 Ry     beta= 0.70
     Davidson diagonalization with overlap
     ethr =  2.50E-03,  avg # of iterations =  1.3

     negative rho (up, down):  1.177E-01 0.000E+00

     total cpu time spent up to now is        4.2 secs

     total energy              =     -28.86200655 Ry
     estimated scf accuracy    <       1.46044509 Ry

     iteration # 17     ecut=    26.00 Ry     beta= 0.70
     Davidson diagonalization with overlap
     ethr =  2.50E-03,  avg # of iterations =  2.8

     negative rho (up, down):  6.564E-02 0.000E+00

     total cpu time spent up to now is        4.4 secs

     total energy              =     -29.18975025 Ry
     estimated scf accuracy    <       0.02275493 Ry

     iteration # 18     ecut=    26.00 Ry     beta= 0.70
     Davidson diagonalization with overlap
     c_bands:  1 eigenvalues not converged
     ethr =  7.11E-05,  avg # of iterations = 12.2

     negative rho (up, down):  5.948E-02 0.000E+00

     total cpu time spent up to now is        4.9 secs

     total energy              =     -29.25047026 Ry
     estimated scf accuracy    <       0.11097594 Ry

     iteration # 19     ecut=    26.00 Ry     beta= 0.70
     Davidson diagonalization with overlap
     ethr =  7.11E-05,  avg # of iterations =  1.9

     negative rho (up, down):  5.308E-02 0.000E+00

     total cpu time spent up to now is        5.1 secs

     total energy              =     -29.28378550 Ry
     estimated scf accuracy    <       0.14222521 Ry

     iteration # 20     ecut=    26.00 Ry     beta= 0.70
     Davidson diagonalization with overlap
     ethr =  7.11E-05,  avg # of iterations =  3.1

     negative rho (up, down):  3.032E-02 0.000E+00

     total cpu time spent up to now is        5.3 secs

     total energy              =     -29.69133275 Ry
     estimated scf accuracy    <       0.18113738 Ry

     iteration # 21     ecut=    26.00 Ry     beta= 0.70
     Davidson diagonalization with overlap
     c_bands:  1 eigenvalues not converged
     c_bands:  1 eigenvalues not converged
     c_bands:  1 eigenvalues not converged
     ethr =  7.11E-05,  avg # of iterations =  7.2

     negative rho (up, down):  6.426E-02 0.000E+00

     total cpu time spent up to now is        5.6 secs

     total energy              =     -29.23316384 Ry
     estimated scf accuracy    <       0.67136368 Ry

     iteration # 22     ecut=    26.00 Ry     beta= 0.70
     Davidson diagonalization with overlap
     c_bands:  1 eigenvalues not converged
     ethr =  7.11E-05,  avg # of iterations =  5.3

     negative rho (up, down):  7.659E-02 0.000E+00

     total cpu time spent up to now is        5.9 secs

     total energy              =     -29.20382133 Ry
     estimated scf accuracy    <       0.13400640 Ry

     iteration # 23     ecut=    26.00 Ry     beta= 0.70
     Davidson diagonalization with overlap
     ethr =  7.11E-05,  avg # of iterations =  2.8

     negative rho (up, down):  8.358E-02 0.000E+00

     total cpu time spent up to now is        6.1 secs

     total energy              =     -29.18805320 Ry
     estimated scf accuracy    <       0.08362627 Ry

     iteration # 24     ecut=    26.00 Ry     beta= 0.70
     Davidson diagonalization with overlap
     ethr =  7.11E-05,  avg # of iterations =  2.1

     negative rho (up, down):  1.438E-01 0.000E+00

     total cpu time spent up to now is        6.2 secs

     total energy              =     -29.13235989 Ry
     estimated scf accuracy    <       0.06288516 Ry

     iteration # 25     ecut=    26.00 Ry     beta= 0.70
     Davidson diagonalization with overlap
     ethr =  7.11E-05,  avg # of iterations =  7.5

     negative rho (up, down):  1.423E-01 0.000E+00

     total cpu time spent up to now is        6.5 secs

     total energy              =     -29.13856185 Ry
     estimated scf accuracy    <       0.00019728 Ry

     iteration # 26     ecut=    26.00 Ry     beta= 0.70
     Davidson diagonalization with overlap
     c_bands:  1 eigenvalues not converged
     ethr =  6.16E-07,  avg # of iterations =  7.1

     negative rho (up, down):  1.424E-01 0.000E+00

     total cpu time spent up to now is        6.8 secs

     total energy              =     -29.13862299 Ry
     estimated scf accuracy    <       0.00023599 Ry

     iteration # 27     ecut=    26.00 Ry     beta= 0.70
     Davidson diagonalization with overlap
     ethr =  6.16E-07,  avg # of iterations =  2.1

     negative rho (up, down):  1.419E-01 0.000E+00

     total cpu time spent up to now is        7.0 secs

     total energy              =     -29.13861099 Ry
     estimated scf accuracy    <       0.00004948 Ry

     iteration # 28     ecut=    26.00 Ry     beta= 0.70
     Davidson diagonalization with overlap
     ethr =  1.55E-07,  avg # of iterations =  3.6

     negative rho (up, down):  1.420E-01 0.000E+00

     total cpu time spent up to now is        7.3 secs

     total energy              =     -29.13863232 Ry
     estimated scf accuracy    <       0.00002175 Ry

     iteration # 29     ecut=    26.00 Ry     beta= 0.70
     Davidson diagonalization with overlap
     ethr =  6.80E-08,  avg # of iterations =  2.0

     negative rho (up, down):  1.420E-01 0.000E+00

     total cpu time spent up to now is        7.4 secs

     total energy              =     -29.13863550 Ry
     estimated scf accuracy    <       0.00000086 Ry

     iteration # 30     ecut=    26.00 Ry     beta= 0.70
     Davidson diagonalization with overlap
     ethr =  2.67E-09,  avg # of iterations =  4.2

     negative rho (up, down):  1.420E-01 0.000E+00

     total cpu time spent up to now is        7.7 secs

     total energy              =     -29.13863604 Ry
     estimated scf accuracy    <       0.00000006 Ry

     iteration # 31     ecut=    26.00 Ry     beta= 0.70
     Davidson diagonalization with overlap
     ethr =  2.00E-10,  avg # of iterations =  4.2

     negative rho (up, down):  1.420E-01 0.000E+00

     total cpu time spent up to now is        8.0 secs

     total energy              =     -29.13863609 Ry
     estimated scf accuracy    <       0.00000002 Ry

     iteration # 32     ecut=    26.00 Ry     beta= 0.70
     Davidson diagonalization with overlap
     ethr =  7.11E-11,  avg # of iterations =  2.5

     negative rho (up, down):  1.420E-01 0.000E+00

     total cpu time spent up to now is        8.2 secs

     End of self-consistent calculation

          k = 0.0000 0.0000 0.0000 (  1199 PWs)   bands (ev):

   -37.2985 -37.2985 -28.9929 -24.2674 -24.2674 -18.9134 -16.8192 -16.8192
   -15.2948  -7.5542  -6.5253  -4.2873  -3.9872  -3.9872   2.2005   5.0356
     5.3943   6.7635   7.8076   7.8076

          k = 0.0000 0.0962 0.0000 (  1187 PWs)   bands (ev):

   -37.4589 -37.3357 -29.7940 -23.9203 -22.8433 -18.8059 -17.0056 -16.9255
   -14.4188  -7.2374  -6.9051  -4.1612  -3.5488  -3.4203   1.9915   5.2639
     5.6257   6.9891   7.1743   7.5240

          k = 0.0000 0.1925 0.0000 (  1187 PWs)   bands (ev):

   -37.8655 -37.4835 -31.0397 -22.9811 -19.9261 -19.0150 -17.4797 -17.0746
   -14.2889  -7.8602  -6.9514  -3.8358  -2.4386  -1.9776   1.2633   5.6020
     5.9464   6.3040   6.8369   7.6550

          k = 0.0000 0.2887 0.0000 (  1183 PWs)   bands (ev):

   -38.3732 -37.8162 -31.8479 -21.7820 -19.3299 -18.0475 -17.0170 -16.4711
   -13.4271  -8.3613  -6.2655  -3.2937  -0.9061  -0.0903   0.8937   3.7133
     6.0763   7.0641   7.1478   7.4349

          k = 0.0000 0.3849 0.0000 (  1188 PWs)   bands (ev):

   -38.8303 -38.2556 -32.1276 -20.5540 -19.7564 -18.5540 -16.8111 -13.2762
   -12.0214  -9.0016  -5.4327  -2.5649  -0.2466   0.5982   1.8372   2.4862
     4.2648   5.4155   8.6754   8.9944

          k = 0.0000 0.4811 0.0000 (  1198 PWs)   bands (ev):

   -39.1544 -38.6068 -32.3628 -20.0594 -19.5204 -18.8928 -16.6112 -12.1089
    -9.6382  -8.7970  -4.4948  -1.6588  -1.1422   0.1939   1.3210   1.7941
     4.8601   4.9856   7.4877   9.8578

          k = 0.0000-0.5774 0.0000 (  1194 PWs)   bands (ev):

   -39.2427 -38.6811 -32.3918 -20.1785 -19.0078 -18.8195 -16.5562 -12.1594
   -10.0568  -6.7919  -4.1969  -1.6593  -1.0701  -0.5818  -0.4582   2.2543
     4.8321   6.4793   6.7999   7.9945

          k = 0.0833 0.1443 0.0000 (  1189 PWs)   bands (ev):

   -37.7996 -37.3637 -30.7546 -23.2484 -20.8008 -18.9369 -17.2402 -17.1375
   -14.2556  -7.4432  -7.0285  -3.9434  -2.7824  -2.4330   1.5364   5.7190
     6.0783   6.1913   6.8531   7.4338

          k = 0.0833 0.2406 0.0000 (  1190 PWs)   bands (ev):

   -38.3874 -37.4333 -31.7205 -22.0801 -19.2433 -17.8146 -17.6429 -17.2294
   -13.6792  -7.8973  -6.5237  -3.5104  -1.4226  -0.7503   1.0337   4.6235
     5.7736   6.6290   6.9829   8.3154

          k = 0.0833 0.3368 0.0000 (  1184 PWs)   bands (ev):

   -39.0029 -37.6163 -32.2336 -20.8083 -19.6835 -18.1197 -17.0502 -14.3785
   -12.7577  -8.4532  -5.7695  -2.8751   0.0087   0.3390   1.4626   2.7392
     4.5071   6.2667   7.9942   8.3292

          k = 0.0833 0.4330 0.0000 (  1190 PWs)   bands (ev):

   -39.4901 -37.8777 -32.5193 -20.1058 -19.6209 -18.5171 -16.7877 -12.4735
   -10.2455  -9.1992  -4.8448  -2.0726  -0.6400   0.9908   1.5477   2.3883
     3.7297   5.0071   8.0359   9.8116

          k = 0.0833 0.5292 0.0000 (  1200 PWs)   bands (ev):

   -39.7554 -38.0616 -32.6442 -20.3630 -18.9500 -18.7392 -16.6847 -11.7958
    -9.8923  -7.1960  -4.0341  -1.4845  -1.1662  -0.5839   0.1626   2.3939
     4.4902   6.0054   6.1132   8.7360

          k = 0.1667 0.2887 0.0000 (  1184 PWs)   bands (ev):

   -39.1204 -37.2456 -32.3745 -20.6824 -19.6871 -17.6255 -17.4141 -14.9727
   -13.0140  -8.3679  -5.9006  -2.9883  -0.0677   0.6426   0.8244   3.5112
     3.8692   6.8699   7.7672   8.1036

          k = 0.1667 0.3849 0.0000 (  1178 PWs)   bands (ev):

   -39.7516 -37.1195 -32.8421 -20.2244 -19.3257 -17.9059 -17.1858 -12.7100
   -11.0478  -8.6866  -4.9730  -2.2927  -0.2573   1.7126   1.7797   2.4193
     2.8480   5.3141   7.9863   9.3568

          k = 0.1667 0.4811 0.0000 (  1198 PWs)   bands (ev):

   -40.2028 -37.1470 -33.2239 -20.6005 -18.5912 -18.2118 -16.9983 -11.9568
    -9.2686  -7.9780  -4.1146  -1.5335  -1.0818   0.1581   0.7280   2.7922
     4.1404   5.0062   5.3545   9.7053

          k = 0.1667 0.5774 0.0000 (  1196 PWs)   bands (ev):

   -40.3600 -37.1291 -33.3321 -20.7242 -18.2944 -18.2365 -16.9156 -11.3609
    -9.7273  -5.9861  -3.5618  -1.6197  -1.2159  -1.0449  -0.0541   3.2675
     3.5707   4.6009   6.7610   8.0313

          k = 0.2500 0.4330 0.0000 (  1180 PWs)   bands (ev):

   -40.3514 -36.6350 -33.5779 -20.6913 -18.2762 -17.7987 -17.3077 -12.0479
    -9.1072  -8.3716  -4.2164  -1.6619  -0.8619   0.6458   0.8087   3.2881
     4.2194   4.3866   4.8094  10.1447

          k = 0.2500 0.5292 0.0000 (  1200 PWs)   bands (ev):

   -40.6794 -36.2046 -34.1394 -20.9434 -17.8544 -17.6237 -17.2898 -11.4155
   -10.0411  -5.6246  -3.3999  -1.8338  -1.3551  -1.2788   0.4096   2.6943
     3.5596   4.1499   6.1053   8.2672

          k = 0.3333 0.5774 0.0000 (  1212 PWs)   bands (ev):

   -40.8597 -35.2300 -35.2300 -21.0637 -17.5721 -17.5721 -17.4699 -10.7680
   -10.7680  -3.3193  -3.3193  -2.5757  -2.5757  -1.4437   1.2337   1.2337
     3.0947   4.7359   7.0443   7.0443

     the Fermi energy is     3.7191 ev

!    total energy              =     -29.13863609 Ry
     estimated scf accuracy    <          6.6E-10 Ry
     smearing contrib. (-TS)   =      -0.00072431 Ry
     internal energy E=F+TS    =     -29.13791178 Ry

     The total energy is F=E-TS. E is the sum of the following terms:
     one-electron contribution =   -2282.08374842 Ry
     hartree contribution      =    1152.49401333 Ry
     xc contribution           =     -48.36199688 Ry
     ewald contribution        =    1148.81382020 Ry

     convergence has been achieved in  32 iterations

     negative rho (up, down):  1.420E-01 0.000E+00

     Forces acting on atoms (cartesian axes, Ry/au):

     atom    1 type  1   force =     0.00000000    0.00000000  -26.47462950
     atom    2 type  1   force =     0.00000000    0.00000000  -26.47462950
     atom    3 type  1   force =     0.00000000    0.00000000   -1.60447476
     atom    4 type  1   force =     0.00000000    0.00000000   -1.60447476
     atom    5 type  1   force =     0.00000000    0.00000000    1.60118309
     atom    6 type  1   force =    -0.00000000   -0.00000000    1.60118309
     atom    7 type  1   force =     0.00000000    0.00000000   26.47792118
     atom    8 type  1   force =     0.00000000    0.00000000   26.47792118

     Total force =    53.049495     Total SCF correction =     0.000105


     Computing stress (Cartesian axis) and pressure


     negative rho (up, down):  1.420E-01 0.000E+00
          total   stress  (Ry/bohr**3)                   (kbar)     P=    12720.50
   0.00636932   0.00000000   0.00000000          936.96        0.00        0.00
   0.00000000   0.00636932   0.00000000            0.00      936.96        0.00
   0.00000000  -0.00000000   0.24667796            0.00       -0.00    36287.58


     Writing all to output data dir /home/rfa/Skripsi/DFT/dft-graphene/tmp/gr-aa-4L.save/ :
     XML data file, charge density, pseudopotentials, collected wavefunctions

     init_run     :      0.31s CPU      0.40s WALL (       1 calls)
     electrons    :     13.90s CPU      7.70s WALL (       1 calls)
     forces       :      0.04s CPU      0.02s WALL (       1 calls)
     stress       :      0.14s CPU      0.08s WALL (       1 calls)

     Called by init_run:
     wfcinit      :      0.15s CPU      0.09s WALL (       1 calls)
     potinit      :      0.00s CPU      0.00s WALL (       1 calls)
     hinit0       :      0.15s CPU      0.29s WALL (       1 calls)

     Called by electrons:
     c_bands      :     12.18s CPU      6.74s WALL (      32 calls)
     sum_band     :      1.39s CPU      0.77s WALL (      32 calls)
     v_of_rho     :      0.12s CPU      0.06s WALL (      33 calls)
     newd         :      0.12s CPU      0.07s WALL (      33 calls)
     mix_rho      :      0.05s CPU      0.03s WALL (      32 calls)

     Called by c_bands:
     init_us_2    :      0.27s CPU      0.14s WALL (    1273 calls)
     cegterg      :     11.53s CPU      6.34s WALL (     608 calls)

     Called by *egterg:
     cdiaghg      :      3.03s CPU      1.59s WALL (    2969 calls)
     h_psi        :      6.68s CPU      3.78s WALL (    2988 calls)
     s_psi        :      0.30s CPU      0.15s WALL (    2988 calls)
     g_psi        :      0.07s CPU      0.04s WALL (    2361 calls)

     Called by h_psi:
     h_psi:calbec :      1.06s CPU      0.60s WALL (    2988 calls)
     vloc_psi     :      5.13s CPU      2.90s WALL (    2988 calls)
     add_vuspsi   :      0.38s CPU      0.21s WALL (    2988 calls)

     General routines
     calbec       :      1.31s CPU      0.73s WALL (    3919 calls)
     fft          :      0.17s CPU      0.31s WALL (     388 calls)
     ffts         :      0.01s CPU      0.00s WALL (      32 calls)
     fftw         :      4.98s CPU      2.77s WALL (   83142 calls)

     Parallel routines

     PWSCF        :     14.48s CPU      8.43s WALL


   This run was terminated on:  14:39:30  16Apr2025            

=------------------------------------------------------------------------------=
   JOB DONE.
=------------------------------------------------------------------------------=
