
     Program PWSCF v.7.4.1 starts on 16Apr2025 at 14:40: 4 

     This program is part of the open-source Quantum ESPRESSO suite
     for quantum simulation of materials; please cite
         "P. Giannozzi et al., J. Phys.:Condens. Matter 21 395502 (2009);
         "P. Giannozzi et al., J. Phys.:Condens. Matter 29 465901 (2017);
         "P. Giannozzi et al., J. Chem. Phys. 152 154105 (2020);
          URL http://www.quantum-espresso.org", 
     in publications or presentations arising from this work. More details at
     http://www.quantum-espresso.org/quote

     Parallel version (MPI), running on     7 processors

     MPI processes distributed on     1 nodes
     13593 MiB available memory on the printing compute node when the environment starts

     Waiting for input...
     Reading input from standard input

     Current dimensions of program PWSCF are:
     Max number of different atomic species (ntypx) = 10
     Max number of k-points (npk) =  40000
     Max angular momentum in pseudopotentials (lmaxx) =  4

     R & G space division:  proc/nbgrp/npool/nimage =       7
     Subspace diagonalization in iterative solution of the eigenvalue problem:
     a serial algorithm will be used


     Parallelization info
     --------------------
     sticks:   dense  smooth     PW     G-vecs:    dense   smooth      PW
     Min          34      34     11                 2594     2594     484
     Max          35      35     13                 2609     2609     493
     Sum         241     241     85                18211    18211    3425

     Using Slab Decomposition



     bravais-lattice index     =            4
     lattice parameter (alat)  =       4.6561  a.u.
     unit-cell volume          =     532.1899 (a.u.)^3
     number of atoms/cell      =            8
     number of atomic types    =            1
     number of electrons       =        32.00
     number of Kohn-Sham states=           20
     kinetic-energy cutoff     =      40.0000  Ry
     charge density cutoff     =     160.0000  Ry
     scf convergence threshold =      1.0E-08
     mixing beta               =       0.7000
     number of iterations used =            8  plain     mixing
     Exchange-correlation= PBE
                           (   1   4   3   4   0   0   0)

     celldm(1)=   4.656107  celldm(2)=   0.000000  celldm(3)=   6.087896
     celldm(4)=   0.000000  celldm(5)=   0.000000  celldm(6)=   0.000000

     crystal axes: (cart. coord. in units of alat)
               a(1) = (   1.000000   0.000000   0.000000 )  
               a(2) = (  -0.500000   0.866025   0.000000 )  
               a(3) = (   0.000000   0.000000   6.087896 )  

     reciprocal axes: (cart. coord. in units 2 pi/alat)
               b(1) = (  1.000000  0.577350 -0.000000 )  
               b(2) = (  0.000000  1.154701  0.000000 )  
               b(3) = (  0.000000 -0.000000  0.164260 )  


     PseudoPot. # 1 for C  read from file:
     /home/rfa/Skripsi/DFT/dft-graphene/pseudo/C.pbe-n-rrkjus_psl.0.1.UPF
     MD5 check sum: 96a6a315177d77e6c95bf6fd3870f9e3
     Pseudo is Ultrasoft + core correction, Zval =  4.0
     Generated using &quot;atomic&quot; code by A. Dal Corso  v.6.3MaX
     Using radial grid of 1073 points,  4 beta functions with: 
                l(1) =   0
                l(2) =   0
                l(3) =   1
                l(4) =   1
     Q(r) pseudized with 0 coefficients 


     atomic species   valence    mass     pseudopotential
     C                 4.00    12.01070     C ( 1.00)

     12 Sym. Ops. (no inversion) found



   Cartesian axes

     site n.     atom                  positions (alat units)
         1        C      tau(   1) = (   0.0000000   0.5773503   3.0439478  )
         2        C      tau(   2) = (   0.5000000   0.2886751   3.0439478  )
         3        C      tau(   3) = (   0.0000000   0.5773503   3.2468777  )
         4        C      tau(   4) = (   0.5000000   0.2886751   3.2468777  )
         5        C      tau(   5) = (   0.0000000   0.5773503   3.4498075  )
         6        C      tau(   6) = (   0.5000000   0.2886751   3.4498075  )
         7        C      tau(   7) = (   0.0000000   0.5773503   3.6527374  )
         8        C      tau(   8) = (   0.5000000   0.2886751   3.6527374  )

     number of k points=    19  Marzari-Vanderbilt smearing, width (Ry)=  0.0200
                       cart. coord. in units 2pi/alat
        k(    1) = (   0.0000000   0.0000000   0.0000000), wk =   0.0138889
        k(    2) = (   0.0000000   0.0962250   0.0000000), wk =   0.0833333
        k(    3) = (   0.0000000   0.1924501   0.0000000), wk =   0.0833333
        k(    4) = (   0.0000000   0.2886751   0.0000000), wk =   0.0833333
        k(    5) = (   0.0000000   0.3849002   0.0000000), wk =   0.0833333
        k(    6) = (   0.0000000   0.4811252   0.0000000), wk =   0.0833333
        k(    7) = (   0.0000000  -0.5773503   0.0000000), wk =   0.0416667
        k(    8) = (   0.0833333   0.1443376   0.0000000), wk =   0.0833333
        k(    9) = (   0.0833333   0.2405626   0.0000000), wk =   0.1666667
        k(   10) = (   0.0833333   0.3367877   0.0000000), wk =   0.1666667
        k(   11) = (   0.0833333   0.4330127   0.0000000), wk =   0.1666667
        k(   12) = (   0.0833333   0.5292377   0.0000000), wk =   0.1666667
        k(   13) = (   0.1666667   0.2886751   0.0000000), wk =   0.0833333
        k(   14) = (   0.1666667   0.3849002   0.0000000), wk =   0.1666667
        k(   15) = (   0.1666667   0.4811252   0.0000000), wk =   0.1666667
        k(   16) = (   0.1666667   0.5773503   0.0000000), wk =   0.0833333
        k(   17) = (   0.2500000   0.4330127   0.0000000), wk =   0.0833333
        k(   18) = (   0.2500000   0.5292377   0.0000000), wk =   0.1666667
        k(   19) = (   0.3333333   0.5773503   0.0000000), wk =   0.0277778

     Dense  grid:    18211 G-vectors     FFT dimensions: (  20,  20, 120)

     Estimated max dynamical RAM per process >       6.76 MB

     Estimated total dynamical RAM >      47.33 MB

     Check: negative core charge=   -0.000024

     Initial potential from superposition of free atoms

     starting charge      31.9997, renormalised to      32.0000

     negative rho (up, down):  1.332E-04 0.000E+00
     Starting wfcs are   32 randomized atomic wfcs

     total cpu time spent up to now is        0.9 secs

     per-process dynamical memory:    11.3 Mb

     Self-consistent Calculation

     iteration #  1     ecut=    40.00 Ry     beta= 0.70
     Davidson diagonalization with overlap
     ethr =  1.00E-02,  avg # of iterations =  9.8

     negative rho (up, down):  1.376E-02 0.000E+00

     total cpu time spent up to now is        1.9 secs

     total energy              =     -16.22943260 Ry
     estimated scf accuracy    <      47.64349329 Ry

     iteration #  2     ecut=    40.00 Ry     beta= 0.70
     Davidson diagonalization with overlap
     c_bands:  2 eigenvalues not converged
     c_bands:  5 eigenvalues not converged
     c_bands:  1 eigenvalues not converged
     c_bands:  1 eigenvalues not converged
     c_bands:  3 eigenvalues not converged
     c_bands:  2 eigenvalues not converged
     ethr =  1.00E-02,  avg # of iterations = 18.8

     total cpu time spent up to now is        3.5 secs

     total energy              =      36.34264400 Ry
     estimated scf accuracy    <     309.76883745 Ry

     iteration #  3     ecut=    40.00 Ry     beta= 0.70
     Davidson diagonalization with overlap
     ethr =  1.00E-02,  avg # of iterations = 14.2

     total cpu time spent up to now is        4.8 secs

     total energy              =     -36.17337376 Ry
     estimated scf accuracy    <       6.80834711 Ry

     iteration #  4     ecut=    40.00 Ry     beta= 0.70
     Davidson diagonalization with overlap
     ethr =  1.00E-02,  avg # of iterations =  3.9

     total cpu time spent up to now is        5.2 secs

     total energy              =     -35.27183545 Ry
     estimated scf accuracy    <       4.10054582 Ry

     iteration #  5     ecut=    40.00 Ry     beta= 0.70
     Davidson diagonalization with overlap
     ethr =  1.00E-02,  avg # of iterations =  1.1

     total cpu time spent up to now is        5.5 secs

     total energy              =     -35.09888646 Ry
     estimated scf accuracy    <       2.34954194 Ry

     iteration #  6     ecut=    40.00 Ry     beta= 0.70
     Davidson diagonalization with overlap
     ethr =  7.34E-03,  avg # of iterations =  1.0

     total cpu time spent up to now is        5.8 secs

     total energy              =     -35.06126518 Ry
     estimated scf accuracy    <       2.01978876 Ry

     iteration #  7     ecut=    40.00 Ry     beta= 0.70
     Davidson diagonalization with overlap
     ethr =  6.31E-03,  avg # of iterations =  1.0

     total cpu time spent up to now is        6.0 secs

     total energy              =     -34.23223274 Ry
     estimated scf accuracy    <       1.85128135 Ry

     iteration #  8     ecut=    40.00 Ry     beta= 0.70
     Davidson diagonalization with overlap
     ethr =  5.79E-03,  avg # of iterations =  1.7

     negative rho (up, down):  4.455E-05 0.000E+00

     total cpu time spent up to now is        6.3 secs

     total energy              =     -33.81268719 Ry
     estimated scf accuracy    <       0.67315542 Ry

     iteration #  9     ecut=    40.00 Ry     beta= 0.70
     Davidson diagonalization with overlap
     ethr =  2.10E-03,  avg # of iterations =  7.2

     negative rho (up, down):  2.279E-06 0.000E+00

     total cpu time spent up to now is        6.9 secs

     total energy              =     -34.04845153 Ry
     estimated scf accuracy    <       0.13025104 Ry

     iteration # 10     ecut=    40.00 Ry     beta= 0.70
     Davidson diagonalization with overlap
     ethr =  4.07E-04,  avg # of iterations =  5.1

     total cpu time spent up to now is        7.3 secs

     total energy              =     -34.06234724 Ry
     estimated scf accuracy    <       0.13762497 Ry

     iteration # 11     ecut=    40.00 Ry     beta= 0.70
     Davidson diagonalization with overlap
     ethr =  4.07E-04,  avg # of iterations =  1.9

     negative rho (up, down):  1.506E-02 0.000E+00

     total cpu time spent up to now is        7.6 secs

     total energy              =     -33.98767224 Ry
     estimated scf accuracy    <       0.10807883 Ry

     iteration # 12     ecut=    40.00 Ry     beta= 0.70
     Davidson diagonalization with overlap
     c_bands:  1 eigenvalues not converged
     c_bands:  1 eigenvalues not converged
     c_bands:  2 eigenvalues not converged
     ethr =  3.38E-04,  avg # of iterations =  9.5

     negative rho (up, down):  1.417E-02 0.000E+00

     total cpu time spent up to now is        8.2 secs

     total energy              =     -33.99957319 Ry
     estimated scf accuracy    <       0.02435120 Ry

     iteration # 13     ecut=    40.00 Ry     beta= 0.70
     Davidson diagonalization with overlap
     ethr =  7.61E-05,  avg # of iterations =  4.5

     negative rho (up, down):  1.396E-02 0.000E+00

     total cpu time spent up to now is        8.6 secs

     total energy              =     -34.00244804 Ry
     estimated scf accuracy    <       0.01828803 Ry

     iteration # 14     ecut=    40.00 Ry     beta= 0.70
     Davidson diagonalization with overlap
     ethr =  5.72E-05,  avg # of iterations =  1.3

     negative rho (up, down):  1.451E-02 0.000E+00

     total cpu time spent up to now is        8.9 secs

     total energy              =     -33.99615181 Ry
     estimated scf accuracy    <       0.01726712 Ry

     iteration # 15     ecut=    40.00 Ry     beta= 0.70
     Davidson diagonalization with overlap
     ethr =  5.40E-05,  avg # of iterations =  4.3

     negative rho (up, down):  1.470E-02 0.000E+00

     total cpu time spent up to now is        9.3 secs

     total energy              =     -33.99870633 Ry
     estimated scf accuracy    <       0.00205789 Ry

     iteration # 16     ecut=    40.00 Ry     beta= 0.70
     Davidson diagonalization with overlap
     c_bands:  1 eigenvalues not converged
     c_bands:  1 eigenvalues not converged
     ethr =  6.43E-06,  avg # of iterations =  8.3

     negative rho (up, down):  1.471E-02 0.000E+00

     total cpu time spent up to now is        9.9 secs

     total energy              =     -33.99983778 Ry
     estimated scf accuracy    <       0.00063920 Ry

     iteration # 17     ecut=    40.00 Ry     beta= 0.70
     Davidson diagonalization with overlap
     c_bands:  1 eigenvalues not converged
     c_bands:  1 eigenvalues not converged
     ethr =  2.00E-06,  avg # of iterations =  6.3

     negative rho (up, down):  1.488E-02 0.000E+00

     total cpu time spent up to now is       10.4 secs

     total energy              =     -34.00025134 Ry
     estimated scf accuracy    <       0.00055299 Ry

     iteration # 18     ecut=    40.00 Ry     beta= 0.70
     Davidson diagonalization with overlap
     ethr =  1.73E-06,  avg # of iterations =  3.3

     negative rho (up, down):  1.464E-02 0.000E+00

     total cpu time spent up to now is       10.7 secs

     total energy              =     -33.99957285 Ry
     estimated scf accuracy    <       0.00116328 Ry

     iteration # 19     ecut=    40.00 Ry     beta= 0.70
     Davidson diagonalization with overlap
     c_bands:  1 eigenvalues not converged
     ethr =  1.73E-06,  avg # of iterations =  5.5

     negative rho (up, down):  1.465E-02 0.000E+00

     total cpu time spent up to now is       11.2 secs

     total energy              =     -33.99979919 Ry
     estimated scf accuracy    <       0.00001056 Ry

     iteration # 20     ecut=    40.00 Ry     beta= 0.70
     Davidson diagonalization with overlap
     ethr =  3.30E-08,  avg # of iterations =  7.8

     negative rho (up, down):  1.466E-02 0.000E+00

     total cpu time spent up to now is       12.0 secs

     total energy              =     -33.99982438 Ry
     estimated scf accuracy    <       0.00001140 Ry

     iteration # 21     ecut=    40.00 Ry     beta= 0.70
     Davidson diagonalization with overlap
     ethr =  3.30E-08,  avg # of iterations =  1.6

     negative rho (up, down):  1.467E-02 0.000E+00

     total cpu time spent up to now is       12.3 secs

     total energy              =     -33.99982339 Ry
     estimated scf accuracy    <       0.00000324 Ry

     iteration # 22     ecut=    40.00 Ry     beta= 0.70
     Davidson diagonalization with overlap
     ethr =  1.01E-08,  avg # of iterations =  4.0

     negative rho (up, down):  1.466E-02 0.000E+00

     total cpu time spent up to now is       12.8 secs

     total energy              =     -33.99982440 Ry
     estimated scf accuracy    <       0.00000007 Ry

     iteration # 23     ecut=    40.00 Ry     beta= 0.70
     Davidson diagonalization with overlap
     ethr =  2.28E-10,  avg # of iterations = 11.3

     negative rho (up, down):  1.466E-02 0.000E+00

     total cpu time spent up to now is       13.9 secs

     total energy              =     -33.99982478 Ry
     estimated scf accuracy    <       0.00000004 Ry

     iteration # 24     ecut=    40.00 Ry     beta= 0.70
     Davidson diagonalization with overlap
     ethr =  1.25E-10,  avg # of iterations =  2.1

     negative rho (up, down):  1.466E-02 0.000E+00

     total cpu time spent up to now is       14.2 secs

     total energy              =     -33.99982479 Ry
     estimated scf accuracy    <       0.00000004 Ry

     iteration # 25     ecut=    40.00 Ry     beta= 0.70
     Davidson diagonalization with overlap
     ethr =  1.21E-10,  avg # of iterations =  2.1

     negative rho (up, down):  1.466E-02 0.000E+00

     total cpu time spent up to now is       14.5 secs

     total energy              =     -33.99982477 Ry
     estimated scf accuracy    <       0.00000005 Ry

     iteration # 26     ecut=    40.00 Ry     beta= 0.70
     Davidson diagonalization with overlap
     ethr =  1.21E-10,  avg # of iterations =  1.2

     negative rho (up, down):  1.466E-02 0.000E+00

     total cpu time spent up to now is       14.8 secs

     total energy              =     -33.99982477 Ry
     estimated scf accuracy    <       0.00000001 Ry

     iteration # 27     ecut=    40.00 Ry     beta= 0.70
     Davidson diagonalization with overlap
     ethr =  4.13E-11,  avg # of iterations =  5.0

     negative rho (up, down):  1.466E-02 0.000E+00

     total cpu time spent up to now is       15.3 secs

     total energy              =     -33.99982478 Ry
     estimated scf accuracy    <       0.00000002 Ry

     iteration # 28     ecut=    40.00 Ry     beta= 0.70
     Davidson diagonalization with overlap
     ethr =  4.13E-11,  avg # of iterations =  2.2

     negative rho (up, down):  1.466E-02 0.000E+00

     total cpu time spent up to now is       15.7 secs

     total energy              =     -33.99982477 Ry
     estimated scf accuracy    <       0.00000001 Ry

     iteration # 29     ecut=    40.00 Ry     beta= 0.70
     Davidson diagonalization with overlap
     ethr =  4.13E-11,  avg # of iterations =  1.9

     negative rho (up, down):  1.466E-02 0.000E+00

     total cpu time spent up to now is       16.0 secs

     End of self-consistent calculation

          k = 0.0000 0.0000 0.0000 (  2289 PWs)   bands (ev):

   -34.3128 -34.3128 -27.7871 -21.6659 -21.3644 -21.3644 -17.8644 -15.1455
   -15.1455  -8.2210  -8.1032  -2.8923  -2.4220  -2.4220  -2.0885   6.3142
     6.6125   7.9630   9.0066   9.1597

          k = 0.0000 0.0962 0.0000 (  2286 PWs)   bands (ev):

   -34.4855 -34.3769 -28.3791 -21.7339 -21.0016 -20.2515 -17.7541 -15.3909
   -15.3464  -8.4704  -8.0013  -2.9702  -2.1071  -1.9993  -1.9775   6.5410
     6.8408   8.1534   8.1823   8.7046

          k = 0.0000 0.1925 0.0000 (  2280 PWs)   bands (ev):

   -34.9225 -34.6123 -29.3262 -21.5657 -20.0263 -17.9669 -17.0520 -16.0324
   -15.8457  -9.0128  -7.6332  -3.1324  -1.6384  -1.1779  -0.8675   6.6082
     7.2212   7.5225   7.9881   8.8383

          k = 0.0000 0.2887 0.0000 (  2278 PWs)   bands (ev):

   -35.4530 -35.0590 -29.8972 -21.2807 -18.7100 -16.9595 -16.9069 -16.4430
   -14.1583  -9.7886  -7.0288  -3.3647  -1.0977   0.1516   0.6634   4.9039
     7.1818   8.3444   8.4160   8.5300

          k = 0.0000 0.3849 0.0000 (  2272 PWs)   bands (ev):

   -35.9265 -35.5922 -30.0500 -20.7997 -17.8092 -17.3824 -16.9686 -16.1223
   -10.8889 -10.4301  -6.2242  -3.5759  -0.3964   1.6889   2.2294   3.2472
     5.4962   6.5004   7.0238   9.7558

          k = 0.0000 0.4811 0.0000 (  2282 PWs)   bands (ev):

   -36.2444 -36.0019 -30.0153 -20.3257 -18.6045 -17.3184 -16.3865 -15.2855
   -11.7061  -6.9151  -5.3617  -3.9395   0.3918   1.6743   2.7927   3.1236
     3.4264   5.6845   6.0567   7.9791

          k = 0.0000-0.5774 0.0000 (  2260 PWs)   bands (ev):

   -36.3556 -36.1532 -29.9830 -20.0322 -18.9166 -17.4405 -16.0135 -14.8358
   -12.2048  -4.7176  -4.7104  -4.3354   0.1567   1.1333   1.4733   3.8803
     3.9722   5.0705   5.9032   7.2641

          k = 0.0833 0.1443 0.0000 (  2291 PWs)   bands (ev):

   -34.8620 -34.4457 -29.1120 -21.6727 -20.3080 -18.5746 -17.3922 -15.8039
   -15.7217  -8.8315  -7.7643  -3.0313  -1.7519  -1.6139  -1.1250   6.9944
     7.1553   7.2958   8.0003   8.6196

          k = 0.0833 0.2406 0.0000 (  2281 PWs)   bands (ev):

   -35.4937 -34.5975 -29.8323 -21.3715 -19.1061 -17.2342 -16.4945 -16.2999
   -15.3902  -9.4567  -7.2605  -3.0839  -1.3118  -0.5825   0.2985   5.7220
     6.8836   7.9009   8.1974   9.4891

          k = 0.0833 0.3368 0.0000 (  2266 PWs)   bands (ev):

   -36.1583 -34.8684 -30.1953 -20.9764 -17.7241 -17.3888 -16.8672 -16.4494
   -12.0992 -10.3595  -6.5420  -3.4033  -0.6966   0.7728   1.8830   4.0435
     5.6839   7.4176   7.6616   9.2622

          k = 0.0833 0.4330 0.0000 (  2279 PWs)   bands (ev):

   -36.6890 -35.1581 -30.2688 -20.5283 -18.2289 -17.2998 -16.5101 -15.6087
   -11.3531  -8.4966  -5.7023  -3.6705   0.0267   2.2160   2.4643   3.2634
     3.7335   6.0033   6.2764   8.4171

          k = 0.0833 0.5292 0.0000 (  2273 PWs)   bands (ev):

   -36.9798 -35.3379 -30.2427 -20.1093 -18.8788 -17.5308 -15.7951 -14.8918
   -12.1459  -5.2877  -4.9101  -4.0844   0.6370   0.8025   1.8460   3.3647
     3.9482   5.4056   5.4526   7.1183

          k = 0.1667 0.2887 0.0000 (  2273 PWs)   bands (ev):

   -36.2789 -34.4823 -30.3540 -21.1339 -17.7526 -17.1010 -16.9783 -16.5962
   -12.6981 -10.2038  -6.6709  -3.3647  -0.8056   0.2750   1.8206   4.7595
     5.0125   7.8568   8.0647   9.2997

          k = 0.1667 0.3849 0.0000 (  2279 PWs)   bands (ev):

   -36.9713 -34.4122 -30.7031 -20.6876 -17.8306 -17.4819 -16.3581 -15.8086
   -11.0769  -9.5331  -5.8887  -3.4198  -0.1889   1.4677   3.1282   3.2414
     3.7331   6.3521   6.6817   8.1884

          k = 0.1667 0.4811 0.0000 (  2273 PWs)   bands (ev):

   -37.4313 -34.4046 -30.8564 -20.2646 -18.5407 -17.8041 -15.3292 -14.9610
   -11.9782  -6.2658  -5.0989  -3.7190   0.3482   1.6237   2.1995   2.5891
     3.9955   5.0237   5.9181   6.3330

          k = 0.1667 0.5774 0.0000 (  2254 PWs)   bands (ev):

   -37.5910 -34.4138 -30.8924 -19.9283 -19.0277 -17.9228 -14.9564 -14.4719
   -12.5324  -4.5227  -4.1972  -4.1630   0.0028   0.5145   1.8005   3.3514
     3.7306   4.5202   5.7706   5.7730

          k = 0.2500 0.4330 0.0000 (  2269 PWs)   bands (ev):

   -37.5860 -33.9132 -31.2576 -20.2895 -18.2146 -18.1420 -15.0456 -15.0285
   -11.9399  -6.7242  -5.1385  -3.5586   0.1962   2.1277   2.2294   2.2802
     4.0252   5.2377   5.5405   6.0827

          k = 0.2500 0.5292 0.0000 (  2253 PWs)   bands (ev):

   -37.9107 -33.5289 -31.6716 -19.8374 -18.7782 -18.3579 -14.3227 -14.1611
   -12.7456  -4.4444  -3.9967  -3.8220   0.0637   0.1685   2.1517   3.0783
     3.8143   3.9228   4.5815   6.1843

          k = 0.3333 0.5774 0.0000 (  2259 PWs)   bands (ev):

   -38.0759 -32.5934 -32.5934 -19.6045 -18.7433 -18.7433 -13.7938 -13.5023
   -13.5023  -4.0051  -4.0051  -1.8125  -1.8125  -0.1318   2.8602   2.8602
     3.4644   3.4644   4.0346   6.4013

     the Fermi energy is     3.8918 ev

!    total energy              =     -33.99982477 Ry
     estimated scf accuracy    <          9.4E-10 Ry
     smearing contrib. (-TS)   =      -0.00186806 Ry
     internal energy E=F+TS    =     -33.99795671 Ry

     The total energy is F=E-TS. E is the sum of the following terms:
     one-electron contribution =   -2292.38441497 Ry
     hartree contribution      =    1158.61120085 Ry
     xc contribution           =     -49.03856281 Ry
     ewald contribution        =    1148.81382022 Ry

     convergence has been achieved in  29 iterations

     negative rho (up, down):  1.466E-02 0.000E+00

     Forces acting on atoms (cartesian axes, Ry/au):

     atom    1 type  1   force =     0.00000000    0.00000000  -23.92261363
     atom    2 type  1   force =    -0.00000000   -0.00000000  -23.92261363
     atom    3 type  1   force =     0.00000000    0.00000000    1.52421849
     atom    4 type  1   force =     0.00000000    0.00000000    1.52421849
     atom    5 type  1   force =     0.00000000    0.00000000   -1.52422067
     atom    6 type  1   force =     0.00000000   -0.00000000   -1.52422067
     atom    7 type  1   force =     0.00000000    0.00000000   23.92261581
     atom    8 type  1   force =     0.00000000    0.00000000   23.92261581

     Total force =    47.942246     Total SCF correction =     0.000100


     Computing stress (Cartesian axis) and pressure


     negative rho (up, down):  1.466E-02 0.000E+00
          total   stress  (Ry/bohr**3)                   (kbar)     P=    13193.41
   0.01993632  -0.00000000  -0.00000000         2932.73       -0.00       -0.00
  -0.00000000   0.01993632   0.00000000           -0.00     2932.73        0.00
   0.00000000  -0.00000000   0.22918832            0.00       -0.00    33714.77


     Writing all to output data dir /home/rfa/Skripsi/DFT/dft-graphene/tmp/gr-aa-4L.save/ :
     XML data file, charge density, pseudopotentials, collected wavefunctions

     init_run     :      0.72s CPU      0.83s WALL (       1 calls)
     electrons    :     28.08s CPU     15.07s WALL (       1 calls)
     forces       :      0.08s CPU      0.05s WALL (       1 calls)
     stress       :      0.26s CPU      0.15s WALL (       1 calls)

     Called by init_run:
     wfcinit      :      0.37s CPU      0.20s WALL (       1 calls)
     potinit      :      0.01s CPU      0.01s WALL (       1 calls)
     hinit0       :      0.33s CPU      0.61s WALL (       1 calls)

     Called by electrons:
     c_bands      :     25.16s CPU     13.43s WALL (      29 calls)
     sum_band     :      2.40s CPU      1.29s WALL (      29 calls)
     v_of_rho     :      0.24s CPU      0.13s WALL (      30 calls)
     newd         :      0.17s CPU      0.15s WALL (      30 calls)
     mix_rho      :      0.08s CPU      0.04s WALL (      29 calls)

     Called by c_bands:
     init_us_2    :      0.57s CPU      0.29s WALL (    1159 calls)
     cegterg      :     24.13s CPU     12.82s WALL (     551 calls)

     Called by *egterg:
     cdiaghg      :      3.77s CPU      1.95s WALL (    3359 calls)
     h_psi        :     15.41s CPU      8.28s WALL (    3378 calls)
     s_psi        :      0.79s CPU      0.41s WALL (    3378 calls)
     g_psi        :      0.16s CPU      0.09s WALL (    2808 calls)

     Called by h_psi:
     h_psi:calbec :      2.63s CPU      1.42s WALL (    3378 calls)
     vloc_psi     :     10.92s CPU      5.87s WALL (    3378 calls)
     add_vuspsi   :      1.58s CPU      0.83s WALL (    3378 calls)

     General routines
     calbec       :      3.05s CPU      1.65s WALL (    4252 calls)
     fft          :      0.38s CPU      0.64s WALL (     355 calls)
     ffts         :      0.01s CPU      0.00s WALL (      29 calls)
     fftw         :      9.79s CPU      5.24s WALL (   89110 calls)

     Parallel routines

     PWSCF        :     29.24s CPU     16.42s WALL


   This run was terminated on:  14:40:20  16Apr2025            

=------------------------------------------------------------------------------=
   JOB DONE.
=------------------------------------------------------------------------------=
