
     Program PWSCF v.7.4.1 starts on 16Apr2025 at 14:43:31 

     This program is part of the open-source Quantum ESPRESSO suite
     for quantum simulation of materials; please cite
         "P. Giannozzi et al., J. Phys.:Condens. Matter 21 395502 (2009);
         "P. Giannozzi et al., J. Phys.:Condens. Matter 29 465901 (2017);
         "P. Giannozzi et al., J. Chem. Phys. 152 154105 (2020);
          URL http://www.quantum-espresso.org", 
     in publications or presentations arising from this work. More details at
     http://www.quantum-espresso.org/quote

     Parallel version (MPI), running on     7 processors

     MPI processes distributed on     1 nodes
     13540 MiB available memory on the printing compute node when the environment starts

     Waiting for input...
     Reading input from standard input

     Current dimensions of program PWSCF are:
     Max number of different atomic species (ntypx) = 10
     Max number of k-points (npk) =  40000
     Max angular momentum in pseudopotentials (lmaxx) =  4

     R & G space division:  proc/nbgrp/npool/nimage =       7
     Subspace diagonalization in iterative solution of the eigenvalue problem:
     a serial algorithm will be used


     Parallelization info
     --------------------
     sticks:   dense  smooth     PW     G-vecs:    dense   smooth      PW
     Min          54      54     17                 5366     5366     925
     Max          55      55     18                 5395     5395     942
     Sum         379     379    121                37615    37615    6525

     Using Slab Decomposition



     bravais-lattice index     =            4
     lattice parameter (alat)  =       4.6561  a.u.
     unit-cell volume          =     532.1899 (a.u.)^3
     number of atoms/cell      =            8
     number of atomic types    =            1
     number of electrons       =        32.00
     number of Kohn-Sham states=           20
     kinetic-energy cutoff     =      65.0000  Ry
     charge density cutoff     =     260.0000  Ry
     scf convergence threshold =      1.0E-08
     mixing beta               =       0.7000
     number of iterations used =            8  plain     mixing
     Exchange-correlation= PBE
                           (   1   4   3   4   0   0   0)

     celldm(1)=   4.656107  celldm(2)=   0.000000  celldm(3)=   6.087896
     celldm(4)=   0.000000  celldm(5)=   0.000000  celldm(6)=   0.000000

     crystal axes: (cart. coord. in units of alat)
               a(1) = (   1.000000   0.000000   0.000000 )  
               a(2) = (  -0.500000   0.866025   0.000000 )  
               a(3) = (   0.000000   0.000000   6.087896 )  

     reciprocal axes: (cart. coord. in units 2 pi/alat)
               b(1) = (  1.000000  0.577350 -0.000000 )  
               b(2) = (  0.000000  1.154701  0.000000 )  
               b(3) = (  0.000000 -0.000000  0.164260 )  


     PseudoPot. # 1 for C  read from file:
     /home/rfa/Skripsi/DFT/dft-graphene/pseudo/C.pbe-n-rrkjus_psl.0.1.UPF
     MD5 check sum: 96a6a315177d77e6c95bf6fd3870f9e3
     Pseudo is Ultrasoft + core correction, Zval =  4.0
     Generated using &quot;atomic&quot; code by A. Dal Corso  v.6.3MaX
     Using radial grid of 1073 points,  4 beta functions with: 
                l(1) =   0
                l(2) =   0
                l(3) =   1
                l(4) =   1
     Q(r) pseudized with 0 coefficients 


     atomic species   valence    mass     pseudopotential
     C                 4.00    12.01070     C ( 1.00)

     12 Sym. Ops. (no inversion) found



   Cartesian axes

     site n.     atom                  positions (alat units)
         1        C      tau(   1) = (   0.0000000   0.5773503   3.0439478  )
         2        C      tau(   2) = (   0.5000000   0.2886751   3.0439478  )
         3        C      tau(   3) = (   0.0000000   0.5773503   3.2468777  )
         4        C      tau(   4) = (   0.5000000   0.2886751   3.2468777  )
         5        C      tau(   5) = (   0.0000000   0.5773503   3.4498075  )
         6        C      tau(   6) = (   0.5000000   0.2886751   3.4498075  )
         7        C      tau(   7) = (   0.0000000   0.5773503   3.6527374  )
         8        C      tau(   8) = (   0.5000000   0.2886751   3.6527374  )

     number of k points=    19  Marzari-Vanderbilt smearing, width (Ry)=  0.0200
                       cart. coord. in units 2pi/alat
        k(    1) = (   0.0000000   0.0000000   0.0000000), wk =   0.0138889
        k(    2) = (   0.0000000   0.0962250   0.0000000), wk =   0.0833333
        k(    3) = (   0.0000000   0.1924501   0.0000000), wk =   0.0833333
        k(    4) = (   0.0000000   0.2886751   0.0000000), wk =   0.0833333
        k(    5) = (   0.0000000   0.3849002   0.0000000), wk =   0.0833333
        k(    6) = (   0.0000000   0.4811252   0.0000000), wk =   0.0833333
        k(    7) = (   0.0000000  -0.5773503   0.0000000), wk =   0.0416667
        k(    8) = (   0.0833333   0.1443376   0.0000000), wk =   0.0833333
        k(    9) = (   0.0833333   0.2405626   0.0000000), wk =   0.1666667
        k(   10) = (   0.0833333   0.3367877   0.0000000), wk =   0.1666667
        k(   11) = (   0.0833333   0.4330127   0.0000000), wk =   0.1666667
        k(   12) = (   0.0833333   0.5292377   0.0000000), wk =   0.1666667
        k(   13) = (   0.1666667   0.2886751   0.0000000), wk =   0.0833333
        k(   14) = (   0.1666667   0.3849002   0.0000000), wk =   0.1666667
        k(   15) = (   0.1666667   0.4811252   0.0000000), wk =   0.1666667
        k(   16) = (   0.1666667   0.5773503   0.0000000), wk =   0.0833333
        k(   17) = (   0.2500000   0.4330127   0.0000000), wk =   0.0833333
        k(   18) = (   0.2500000   0.5292377   0.0000000), wk =   0.1666667
        k(   19) = (   0.3333333   0.5773503   0.0000000), wk =   0.0277778

     Dense  grid:    37615 G-vectors     FFT dimensions: (  24,  24, 150)

     Estimated max dynamical RAM per process >      13.61 MB

     Estimated total dynamical RAM >      95.25 MB

     Check: negative core charge=   -0.000006

     Initial potential from superposition of free atoms

     starting charge      31.9997, renormalised to      32.0000

     negative rho (up, down):  1.683E-05 0.000E+00
     Starting wfcs are   32 randomized atomic wfcs

     total cpu time spent up to now is        1.3 secs

     per-process dynamical memory:    15.1 Mb

     Self-consistent Calculation

     iteration #  1     ecut=    65.00 Ry     beta= 0.70
     Davidson diagonalization with overlap
     ethr =  1.00E-02,  avg # of iterations = 12.2

     negative rho (up, down):  2.388E-03 0.000E+00

     total cpu time spent up to now is        4.8 secs

     total energy              =     -16.59909689 Ry
     estimated scf accuracy    <      50.18672655 Ry

     iteration #  2     ecut=    65.00 Ry     beta= 0.70
     Davidson diagonalization with overlap
     c_bands:  1 eigenvalues not converged
     c_bands:  4 eigenvalues not converged
     c_bands:  4 eigenvalues not converged
     c_bands:  2 eigenvalues not converged
     c_bands:  2 eigenvalues not converged
     c_bands:  3 eigenvalues not converged
     c_bands:  5 eigenvalues not converged
     c_bands:  3 eigenvalues not converged
     c_bands:  1 eigenvalues not converged
     c_bands:  2 eigenvalues not converged
     c_bands:  4 eigenvalues not converged
     c_bands:  2 eigenvalues not converged
     c_bands:  3 eigenvalues not converged
     c_bands:  3 eigenvalues not converged
     ethr =  1.00E-02,  avg # of iterations = 20.4

     total cpu time spent up to now is       11.4 secs

     total energy              =      31.81894278 Ry
     estimated scf accuracy    <     277.34348669 Ry

     iteration #  3     ecut=    65.00 Ry     beta= 0.70
     Davidson diagonalization with overlap
     c_bands:  4 eigenvalues not converged
     c_bands:  3 eigenvalues not converged
     ethr =  1.00E-02,  avg # of iterations = 16.0

     total cpu time spent up to now is       16.1 secs

     total energy              =     -37.17321530 Ry
     estimated scf accuracy    <       7.09797264 Ry

     iteration #  4     ecut=    65.00 Ry     beta= 0.70
     Davidson diagonalization with overlap
     ethr =  1.00E-02,  avg # of iterations =  4.3

     total cpu time spent up to now is       17.5 secs

     total energy              =     -36.06278290 Ry
     estimated scf accuracy    <       4.37202235 Ry

     iteration #  5     ecut=    65.00 Ry     beta= 0.70
     Davidson diagonalization with overlap
     ethr =  1.00E-02,  avg # of iterations =  1.1

     total cpu time spent up to now is       18.6 secs

     total energy              =     -35.95937670 Ry
     estimated scf accuracy    <       2.57923535 Ry

     iteration #  6     ecut=    65.00 Ry     beta= 0.70
     Davidson diagonalization with overlap
     ethr =  8.06E-03,  avg # of iterations =  1.1

     total cpu time spent up to now is       19.7 secs

     total energy              =     -35.99251930 Ry
     estimated scf accuracy    <       1.99786873 Ry

     iteration #  7     ecut=    65.00 Ry     beta= 0.70
     Davidson diagonalization with overlap
     ethr =  6.24E-03,  avg # of iterations =  1.4

     total cpu time spent up to now is       20.7 secs

     total energy              =     -36.05958765 Ry
     estimated scf accuracy    <       1.83107898 Ry

     iteration #  8     ecut=    65.00 Ry     beta= 0.70
     Davidson diagonalization with overlap
     ethr =  5.72E-03,  avg # of iterations =  1.0

     total cpu time spent up to now is       21.8 secs

     total energy              =     -36.24118468 Ry
     estimated scf accuracy    <       1.87650050 Ry

     iteration #  9     ecut=    65.00 Ry     beta= 0.70
     Davidson diagonalization with overlap
     ethr =  5.72E-03,  avg # of iterations =  1.0

     total cpu time spent up to now is       23.0 secs

     total energy              =     -34.91293794 Ry
     estimated scf accuracy    <       1.99791045 Ry

     iteration # 10     ecut=    65.00 Ry     beta= 0.70
     Davidson diagonalization with overlap
     ethr =  5.72E-03,  avg # of iterations =  6.1

     total cpu time spent up to now is       24.6 secs

     total energy              =     -35.23165870 Ry
     estimated scf accuracy    <       0.65404225 Ry

     iteration # 11     ecut=    65.00 Ry     beta= 0.70
     Davidson diagonalization with overlap
     ethr =  2.04E-03,  avg # of iterations =  4.6

     negative rho (up, down):  1.192E-03 0.000E+00

     total cpu time spent up to now is       26.1 secs

     total energy              =     -35.37529129 Ry
     estimated scf accuracy    <       0.76524212 Ry

     iteration # 12     ecut=    65.00 Ry     beta= 0.70
     Davidson diagonalization with overlap
     c_bands:  1 eigenvalues not converged
     ethr =  2.04E-03,  avg # of iterations =  2.9

     negative rho (up, down):  1.778E-02 0.000E+00

     total cpu time spent up to now is       27.8 secs

     total energy              =     -35.45890235 Ry
     estimated scf accuracy    <       0.86928481 Ry

     iteration # 13     ecut=    65.00 Ry     beta= 0.70
     Davidson diagonalization with overlap
     c_bands:  1 eigenvalues not converged
     ethr =  2.04E-03,  avg # of iterations =  3.8

     negative rho (up, down):  7.148E-03 0.000E+00

     total cpu time spent up to now is       29.3 secs

     total energy              =     -35.47778243 Ry
     estimated scf accuracy    <       1.56476186 Ry

     iteration # 14     ecut=    65.00 Ry     beta= 0.70
     Davidson diagonalization with overlap
     ethr =  2.04E-03,  avg # of iterations =  2.3

     total cpu time spent up to now is       30.5 secs

     total energy              =     -35.26799214 Ry
     estimated scf accuracy    <       1.33612179 Ry

     iteration # 15     ecut=    65.00 Ry     beta= 0.70
     Davidson diagonalization with overlap
     ethr =  2.04E-03,  avg # of iterations =  2.2

     total cpu time spent up to now is       31.7 secs

     total energy              =     -35.26978924 Ry
     estimated scf accuracy    <       0.87885557 Ry

     iteration # 16     ecut=    65.00 Ry     beta= 0.70
     Davidson diagonalization with overlap
     ethr =  2.04E-03,  avg # of iterations =  3.8

     total cpu time spent up to now is       33.0 secs

     total energy              =     -35.62840233 Ry
     estimated scf accuracy    <       0.68072746 Ry

     iteration # 17     ecut=    65.00 Ry     beta= 0.70
     Davidson diagonalization with overlap
     ethr =  2.04E-03,  avg # of iterations =  8.0

     total cpu time spent up to now is       34.8 secs

     total energy              =     -35.91255712 Ry
     estimated scf accuracy    <       1.03174318 Ry

     iteration # 18     ecut=    65.00 Ry     beta= 0.70
     Davidson diagonalization with overlap
     ethr =  2.04E-03,  avg # of iterations =  1.1

     total cpu time spent up to now is       35.9 secs

     total energy              =     -35.70570371 Ry
     estimated scf accuracy    <       1.18783075 Ry

     iteration # 19     ecut=    65.00 Ry     beta= 0.70
     Davidson diagonalization with overlap
     ethr =  2.04E-03,  avg # of iterations =  1.0

     total cpu time spent up to now is       37.0 secs

     total energy              =     -35.50848376 Ry
     estimated scf accuracy    <       0.83664121 Ry

     iteration # 20     ecut=    65.00 Ry     beta= 0.70
     Davidson diagonalization with overlap
     ethr =  2.04E-03,  avg # of iterations =  1.1

     total cpu time spent up to now is       38.0 secs

     total energy              =     -35.45350209 Ry
     estimated scf accuracy    <       0.55756239 Ry

     iteration # 21     ecut=    65.00 Ry     beta= 0.70
     Davidson diagonalization with overlap
     ethr =  1.74E-03,  avg # of iterations =  1.0

     total cpu time spent up to now is       39.1 secs

     total energy              =     -35.30201535 Ry
     estimated scf accuracy    <       0.46968007 Ry

     iteration # 22     ecut=    65.00 Ry     beta= 0.70
     Davidson diagonalization with overlap
     ethr =  1.47E-03,  avg # of iterations =  2.1

     total cpu time spent up to now is       40.3 secs

     total energy              =     -35.49544090 Ry
     estimated scf accuracy    <       0.27674265 Ry

     iteration # 23     ecut=    65.00 Ry     beta= 0.70
     Davidson diagonalization with overlap
     ethr =  8.65E-04,  avg # of iterations =  2.5

     negative rho (up, down):  2.504E-03 0.000E+00

     total cpu time spent up to now is       41.5 secs

     total energy              =     -35.08083107 Ry
     estimated scf accuracy    <       0.50166839 Ry

     iteration # 24     ecut=    65.00 Ry     beta= 0.70
     Davidson diagonalization with overlap
     c_bands:  2 eigenvalues not converged
     ethr =  8.65E-04,  avg # of iterations =  9.0

     negative rho (up, down):  1.560E-03 0.000E+00

     total cpu time spent up to now is       43.5 secs

     total energy              =     -35.14491863 Ry
     estimated scf accuracy    <       0.06983377 Ry

     iteration # 25     ecut=    65.00 Ry     beta= 0.70
     Davidson diagonalization with overlap
     ethr =  2.18E-04,  avg # of iterations =  5.9

     negative rho (up, down):  2.222E-03 0.000E+00

     total cpu time spent up to now is       45.2 secs

     total energy              =     -35.16418266 Ry
     estimated scf accuracy    <       0.01471771 Ry

     iteration # 26     ecut=    65.00 Ry     beta= 0.70
     Davidson diagonalization with overlap
     c_bands:  1 eigenvalues not converged
     ethr =  4.60E-05,  avg # of iterations =  7.5

     negative rho (up, down):  2.546E-03 0.000E+00

     total cpu time spent up to now is       47.1 secs

     total energy              =     -35.17095923 Ry
     estimated scf accuracy    <       0.00171307 Ry

     iteration # 27     ecut=    65.00 Ry     beta= 0.70
     Davidson diagonalization with overlap
     c_bands:  1 eigenvalues not converged
     c_bands:  1 eigenvalues not converged
     c_bands:  2 eigenvalues not converged
     ethr =  5.35E-06,  avg # of iterations = 11.5

     negative rho (up, down):  2.177E-03 0.000E+00

     total cpu time spent up to now is       50.0 secs

     total energy              =     -35.17264197 Ry
     estimated scf accuracy    <       0.00043227 Ry

     iteration # 28     ecut=    65.00 Ry     beta= 0.70
     Davidson diagonalization with overlap
     c_bands:  1 eigenvalues not converged
     c_bands:  1 eigenvalues not converged
     ethr =  1.35E-06,  avg # of iterations =  7.6

     negative rho (up, down):  2.325E-03 0.000E+00

     total cpu time spent up to now is       52.3 secs

     total energy              =     -35.17282922 Ry
     estimated scf accuracy    <       0.00014720 Ry

     iteration # 29     ecut=    65.00 Ry     beta= 0.70
     Davidson diagonalization with overlap
     c_bands:  1 eigenvalues not converged
     ethr =  4.60E-07,  avg # of iterations =  6.4

     negative rho (up, down):  2.273E-03 0.000E+00

     total cpu time spent up to now is       54.3 secs

     total energy              =     -35.17288228 Ry
     estimated scf accuracy    <       0.00004410 Ry

     iteration # 30     ecut=    65.00 Ry     beta= 0.70
     Davidson diagonalization with overlap
     ethr =  1.38E-07,  avg # of iterations =  6.0

     negative rho (up, down):  2.272E-03 0.000E+00

     total cpu time spent up to now is       56.5 secs

     total energy              =     -35.17291157 Ry
     estimated scf accuracy    <       0.00000697 Ry

     iteration # 31     ecut=    65.00 Ry     beta= 0.70
     Davidson diagonalization with overlap
     c_bands:  1 eigenvalues not converged
     ethr =  2.18E-08,  avg # of iterations =  7.4

     negative rho (up, down):  2.283E-03 0.000E+00

     total cpu time spent up to now is       59.0 secs

     total energy              =     -35.17291886 Ry
     estimated scf accuracy    <       0.00000050 Ry

     iteration # 32     ecut=    65.00 Ry     beta= 0.70
     Davidson diagonalization with overlap
     c_bands:  1 eigenvalues not converged
     ethr =  1.57E-09,  avg # of iterations =  9.5

     negative rho (up, down):  2.281E-03 0.000E+00

     total cpu time spent up to now is       62.1 secs

     total energy              =     -35.17291973 Ry
     estimated scf accuracy    <       0.00000054 Ry

     iteration # 33     ecut=    65.00 Ry     beta= 0.70
     Davidson diagonalization with overlap
     c_bands:  1 eigenvalues not converged
     ethr =  1.57E-09,  avg # of iterations =  3.6

     negative rho (up, down):  2.280E-03 0.000E+00

     total cpu time spent up to now is       63.5 secs

     End of self-consistent calculation

          k = 0.0000 0.0000 0.0000 (  4651 PWs)   bands (ev):

   -34.0444 -34.0444 -27.8810 -23.1602 -21.0813 -21.0813 -17.8177 -15.1444
   -15.1444  -8.1257  -7.9470  -6.0400  -2.4430  -2.4430  -1.6209   7.0898
     7.2299   8.5746   9.0613   9.0662

          k = 0.0000 0.0962 0.0000 (  4651 PWs)   bands (ev):

   -34.2194 -34.1113 -28.4235 -23.0828 -20.7102 -20.0050 -17.6636 -15.4555
   -15.3455  -8.1341  -8.0110  -5.8928  -2.2099  -2.0169  -1.5047   7.3153
     7.4582   8.2636   8.7621   8.7922

          k = 0.0000 0.1925 0.0000 (  4667 PWs)   bands (ev):

   -34.6629 -34.3641 -29.3055 -22.8547 -19.7136 -17.8060 -16.9081 -16.2616
   -15.8488  -8.6777  -7.6674  -5.6341  -1.4882  -1.1647  -0.8743   6.7847
     7.9915   8.0385   8.1115   8.1740

          k = 0.0000 0.2887 0.0000 (  4686 PWs)   bands (ev):

   -35.2013 -34.8410 -29.8177 -22.4771 -18.3675 -17.3175 -16.8424 -16.4504
   -13.9880  -9.5038  -7.1401  -5.4278  -0.6273  -0.3429   0.6731   5.1354
     6.7763   7.2289   8.3254   9.1238

          k = 0.0000 0.3849 0.0000 (  4690 PWs)   bands (ev):

   -35.6805 -35.4000 -29.9296 -21.9527 -18.4292 -17.0069 -16.9797 -16.0198
   -10.6817 -10.2244  -6.5773  -5.2257   0.0570   0.9853   2.2532   3.5243
     5.3325   5.4115   6.5452   9.8062

          k = 0.0000 0.4811 0.0000 (  4700 PWs)   bands (ev):

   -36.0025 -35.8249 -29.8704 -21.2866 -19.4836 -17.3317 -15.9836 -15.1710
   -11.5336  -6.7452  -6.2124  -4.9411   0.7928   1.8857   2.1264   2.8349
     3.4616   4.1743   6.0996   8.0651

          k = 0.0000-0.5774 0.0000 (  4724 PWs)   bands (ev):

   -36.1150 -35.9799 -29.8286 -20.6180 -20.2854 -17.4542 -15.6004 -14.7093
   -12.0476  -6.1103  -4.7724  -4.5023   0.1462   1.3168   1.9146   2.6062
     3.7072   3.9206   5.9456   7.3527

          k = 0.0833 0.1443 0.0000 (  4666 PWs)   bands (ev):

   -34.6049 -34.1865 -29.1069 -22.9299 -20.0010 -18.3720 -17.2674 -15.9772
   -15.7335  -8.5004  -7.7763  -5.6898  -1.8081  -1.2769  -1.1679   7.3173
     7.7660   7.9112   8.0511   8.4667

          k = 0.0833 0.2406 0.0000 (  4682 PWs)   bands (ev):

   -35.2517 -34.3532 -29.7753 -22.6281 -18.7745 -17.1249 -16.8414 -16.3429
   -15.2167  -9.1820  -7.3141  -5.4476  -1.0081  -0.8404   0.2730   5.9332
     6.9393   7.3039   8.6666   8.8046

          k = 0.0833 0.3368 0.0000 (  4711 PWs)   bands (ev):

   -35.9318 -34.6423 -30.0919 -22.1780 -17.8835 -17.3620 -16.9365 -16.3564
   -11.9408 -10.0851  -6.7097  -5.2533  -0.2370   0.1354   1.8870   4.2810
     5.7292   5.9314   7.3485  10.1011

          k = 0.0833 0.4330 0.0000 (  4717 PWs)   bands (ev):

   -36.4739 -34.9464 -30.1303 -21.5825 -18.9467 -17.3855 -16.1190 -15.4982
   -11.1305  -8.3410  -6.1712  -5.0331   0.4469   1.3673   2.7455   3.1637
     3.6897   4.7651   6.0481   8.4770

          k = 0.0833 0.5292 0.0000 (  4726 PWs)   bands (ev):

   -36.7703 -35.1336 -30.0864 -20.8561 -19.9259 -17.6246 -15.3857 -14.7430
   -11.9699  -5.9140  -5.1008  -4.7802   0.7392   1.0119   2.1508   2.3405
     3.1455   4.6686   5.5500   7.1609

          k = 0.1667 0.2887 0.0000 (  4706 PWs)   bands (ev):

   -36.0539 -34.2450 -30.2584 -22.2528 -17.5385 -17.3913 -17.0847 -16.4782
   -12.5400  -9.9418  -6.7273  -5.2007  -0.3435  -0.3287   1.8429   5.0275
     5.0478   6.1748   7.9560  10.7526

          k = 0.1667 0.3849 0.0000 (  4727 PWs)   bands (ev):

   -36.7579 -34.1895 -30.5718 -21.7329 -18.4025 -17.7086 -15.9685 -15.6880
   -10.8686  -9.3897  -6.0361  -4.9926   0.2311   0.6037   3.1624   3.2860
     3.8892   5.1719   6.2730   8.2521

          k = 0.1667 0.4811 0.0000 (  4736 PWs)   bands (ev):

   -37.2243 -34.1955 -30.6984 -21.0729 -19.3566 -18.0685 -14.9676 -14.7650
   -11.8114  -6.1208  -5.5043  -4.7832   0.6069   1.5825   1.7991   2.3796
     3.1123   5.1256   5.2733   6.3623

          k = 0.1667 0.5774 0.0000 (  4744 PWs)   bands (ev):

   -37.3862 -34.2083 -30.7238 -20.3800 -20.1578 -18.1873 -14.5771 -14.2553
   -12.3418  -5.3404  -4.6414  -4.0116  -0.0150   0.6475   2.2350   2.3352
     2.4533   4.7150   5.5895   5.7423

          k = 0.2500 0.4330 0.0000 (  4736 PWs)   bands (ev):

   -37.3793 -33.6987 -31.1018 -21.1485 -18.8677 -18.5251 -14.8958 -14.6204
   -11.7275  -6.5943  -5.2962  -4.7634   0.4398   1.2065   2.3538   2.4243
     3.1558   5.1175   5.4943   5.7422

          k = 0.2500 0.5292 0.0000 (  4754 PWs)   bands (ev):

   -37.7077 -33.3250 -31.4968 -20.4367 -19.6166 -18.8762 -14.1278 -13.7662
   -12.5532  -4.8283  -4.5910  -3.8628   0.0647   0.3145   1.8117   2.4815
     2.5473   4.1950   4.5030   6.1296

          k = 0.3333 0.5774 0.0000 (  4740 PWs)   bands (ev):

   -37.8736 -32.4016 -32.4016 -19.7237 -19.7237 -19.6378 -13.3316 -13.3316
   -13.3294  -4.5252  -4.5252  -1.6870  -1.6870  -0.1669   2.0533   2.0533
     3.2553   3.2553   3.8929   6.4668

     the Fermi energy is     3.4898 ev

!    total energy              =     -35.17291984 Ry
     estimated scf accuracy    <          9.5E-09 Ry
     smearing contrib. (-TS)   =       0.00175826 Ry
     internal energy E=F+TS    =     -35.17467810 Ry

     The total energy is F=E-TS. E is the sum of the following terms:
     one-electron contribution =   -2294.16283984 Ry
     hartree contribution      =    1159.43752590 Ry
     xc contribution           =     -49.26318440 Ry
     ewald contribution        =    1148.81382024 Ry

     convergence has been achieved in  33 iterations

     negative rho (up, down):  2.280E-03 0.000E+00

     Forces acting on atoms (cartesian axes, Ry/au):

     atom    1 type  1   force =     0.00000000    0.00000000  -21.74018378
     atom    2 type  1   force =     0.00000000   -0.00000000  -21.74018378
     atom    3 type  1   force =     0.00000000    0.00000000    3.02403189
     atom    4 type  1   force =     0.00000000   -0.00000000    3.02403189
     atom    5 type  1   force =     0.00000000   -0.00000000   -3.02396286
     atom    6 type  1   force =     0.00000000    0.00000000   -3.02396286
     atom    7 type  1   force =     0.00000000    0.00000000   21.74011476
     atom    8 type  1   force =     0.00000000    0.00000000   21.74011476

     Total force =    43.898913     Total SCF correction =     0.000235


     Computing stress (Cartesian axis) and pressure


     negative rho (up, down):  2.280E-03 0.000E+00
          total   stress  (Ry/bohr**3)                   (kbar)     P=    12969.05
   0.02213693   0.00000000   0.00000000         3256.45        0.00        0.00
   0.00000000   0.02213693  -0.00000000            0.00     3256.45       -0.00
   0.00000000  -0.00000000   0.22021163            0.00       -0.00    32394.25


     Writing all to output data dir /home/rfa/Skripsi/DFT/dft-graphene/tmp/gr-aa-4L.save/ :
     XML data file, charge density, pseudopotentials, collected wavefunctions

     init_run     :      1.20s CPU      1.12s WALL (       1 calls)
     electrons    :    109.98s CPU     62.25s WALL (       1 calls)
     forces       :      0.43s CPU      0.24s WALL (       1 calls)
     stress       :      1.40s CPU      0.78s WALL (       1 calls)

     Called by init_run:
     wfcinit      :      0.89s CPU      0.58s WALL (       1 calls)
     potinit      :      0.01s CPU      0.01s WALL (       1 calls)
     hinit0       :      0.26s CPU      0.49s WALL (       1 calls)

     Called by electrons:
     c_bands      :     96.95s CPU     54.60s WALL (      33 calls)
     sum_band     :     11.66s CPU      6.42s WALL (      33 calls)
     v_of_rho     :      0.49s CPU      0.51s WALL (      34 calls)
     newd         :      0.47s CPU      0.41s WALL (      34 calls)
     mix_rho      :      0.36s CPU      0.24s WALL (      33 calls)

     Called by c_bands:
     init_us_2    :      2.76s CPU      1.45s WALL (    1311 calls)
     cegterg      :     92.34s CPU     52.02s WALL (     629 calls)

     Called by *egterg:
     cdiaghg      :      8.25s CPU      4.34s WALL (    3961 calls)
     h_psi        :     61.77s CPU     35.87s WALL (    3980 calls)
     s_psi        :      4.93s CPU      2.62s WALL (    3980 calls)
     g_psi        :      0.77s CPU      0.41s WALL (    3332 calls)

     Called by h_psi:
     h_psi:calbec :      6.90s CPU      4.15s WALL (    3980 calls)
     vloc_psi     :     48.80s CPU     28.45s WALL (    3980 calls)
     add_vuspsi   :      5.38s CPU      2.87s WALL (    3980 calls)

     General routines
     calbec       :      9.18s CPU      5.35s WALL (    4930 calls)
     fft          :      0.42s CPU      0.66s WALL (     399 calls)
     ffts         :      0.03s CPU      0.02s WALL (      33 calls)
     fftw         :     49.42s CPU     28.79s WALL (  100316 calls)

     Parallel routines

     PWSCF        :   1m53.18s CPU   1m 4.94s WALL


   This run was terminated on:  14:44:36  16Apr2025            

=------------------------------------------------------------------------------=
   JOB DONE.
=------------------------------------------------------------------------------=
