
     Program PWSCF v.7.4.1 starts on 16Apr2025 at 14:42:24 

     This program is part of the open-source Quantum ESPRESSO suite
     for quantum simulation of materials; please cite
         "P. Giannozzi et al., J. Phys.:Condens. Matter 21 395502 (2009);
         "P. Giannozzi et al., J. Phys.:Condens. Matter 29 465901 (2017);
         "P. Giannozzi et al., J. Chem. Phys. 152 154105 (2020);
          URL http://www.quantum-espresso.org", 
     in publications or presentations arising from this work. More details at
     http://www.quantum-espresso.org/quote

     Parallel version (MPI), running on     7 processors

     MPI processes distributed on     1 nodes
     13550 MiB available memory on the printing compute node when the environment starts

     Waiting for input...
     Reading input from standard input

     Current dimensions of program PWSCF are:
     Max number of different atomic species (ntypx) = 10
     Max number of k-points (npk) =  40000
     Max angular momentum in pseudopotentials (lmaxx) =  4

     R & G space division:  proc/nbgrp/npool/nimage =       7
     Subspace diagonalization in iterative solution of the eigenvalue problem:
     a serial algorithm will be used


     Parallelization info
     --------------------
     sticks:   dense  smooth     PW     G-vecs:    dense   smooth      PW
     Min          51      51     15                 4783     4783     815
     Max          52      52     16                 4800     4800     838
     Sum         361     361    109                33523    33523    5791

     Using Slab Decomposition



     bravais-lattice index     =            4
     lattice parameter (alat)  =       4.6561  a.u.
     unit-cell volume          =     532.1899 (a.u.)^3
     number of atoms/cell      =            8
     number of atomic types    =            1
     number of electrons       =        32.00
     number of Kohn-Sham states=           20
     kinetic-energy cutoff     =      60.0000  Ry
     charge density cutoff     =     240.0000  Ry
     scf convergence threshold =      1.0E-08
     mixing beta               =       0.7000
     number of iterations used =            8  plain     mixing
     Exchange-correlation= PBE
                           (   1   4   3   4   0   0   0)

     celldm(1)=   4.656107  celldm(2)=   0.000000  celldm(3)=   6.087896
     celldm(4)=   0.000000  celldm(5)=   0.000000  celldm(6)=   0.000000

     crystal axes: (cart. coord. in units of alat)
               a(1) = (   1.000000   0.000000   0.000000 )  
               a(2) = (  -0.500000   0.866025   0.000000 )  
               a(3) = (   0.000000   0.000000   6.087896 )  

     reciprocal axes: (cart. coord. in units 2 pi/alat)
               b(1) = (  1.000000  0.577350 -0.000000 )  
               b(2) = (  0.000000  1.154701  0.000000 )  
               b(3) = (  0.000000 -0.000000  0.164260 )  


     PseudoPot. # 1 for C  read from file:
     /home/rfa/Skripsi/DFT/dft-graphene/pseudo/C.pbe-n-rrkjus_psl.0.1.UPF
     MD5 check sum: 96a6a315177d77e6c95bf6fd3870f9e3
     Pseudo is Ultrasoft + core correction, Zval =  4.0
     Generated using &quot;atomic&quot; code by A. Dal Corso  v.6.3MaX
     Using radial grid of 1073 points,  4 beta functions with: 
                l(1) =   0
                l(2) =   0
                l(3) =   1
                l(4) =   1
     Q(r) pseudized with 0 coefficients 


     atomic species   valence    mass     pseudopotential
     C                 4.00    12.01070     C ( 1.00)

     12 Sym. Ops. (no inversion) found



   Cartesian axes

     site n.     atom                  positions (alat units)
         1        C      tau(   1) = (   0.0000000   0.5773503   3.0439478  )
         2        C      tau(   2) = (   0.5000000   0.2886751   3.0439478  )
         3        C      tau(   3) = (   0.0000000   0.5773503   3.2468777  )
         4        C      tau(   4) = (   0.5000000   0.2886751   3.2468777  )
         5        C      tau(   5) = (   0.0000000   0.5773503   3.4498075  )
         6        C      tau(   6) = (   0.5000000   0.2886751   3.4498075  )
         7        C      tau(   7) = (   0.0000000   0.5773503   3.6527374  )
         8        C      tau(   8) = (   0.5000000   0.2886751   3.6527374  )

     number of k points=    19  Marzari-Vanderbilt smearing, width (Ry)=  0.0200
                       cart. coord. in units 2pi/alat
        k(    1) = (   0.0000000   0.0000000   0.0000000), wk =   0.0138889
        k(    2) = (   0.0000000   0.0962250   0.0000000), wk =   0.0833333
        k(    3) = (   0.0000000   0.1924501   0.0000000), wk =   0.0833333
        k(    4) = (   0.0000000   0.2886751   0.0000000), wk =   0.0833333
        k(    5) = (   0.0000000   0.3849002   0.0000000), wk =   0.0833333
        k(    6) = (   0.0000000   0.4811252   0.0000000), wk =   0.0833333
        k(    7) = (   0.0000000  -0.5773503   0.0000000), wk =   0.0416667
        k(    8) = (   0.0833333   0.1443376   0.0000000), wk =   0.0833333
        k(    9) = (   0.0833333   0.2405626   0.0000000), wk =   0.1666667
        k(   10) = (   0.0833333   0.3367877   0.0000000), wk =   0.1666667
        k(   11) = (   0.0833333   0.4330127   0.0000000), wk =   0.1666667
        k(   12) = (   0.0833333   0.5292377   0.0000000), wk =   0.1666667
        k(   13) = (   0.1666667   0.2886751   0.0000000), wk =   0.0833333
        k(   14) = (   0.1666667   0.3849002   0.0000000), wk =   0.1666667
        k(   15) = (   0.1666667   0.4811252   0.0000000), wk =   0.1666667
        k(   16) = (   0.1666667   0.5773503   0.0000000), wk =   0.0833333
        k(   17) = (   0.2500000   0.4330127   0.0000000), wk =   0.0833333
        k(   18) = (   0.2500000   0.5292377   0.0000000), wk =   0.1666667
        k(   19) = (   0.3333333   0.5773503   0.0000000), wk =   0.0277778

     Dense  grid:    33523 G-vectors     FFT dimensions: (  24,  24, 144)

     Estimated max dynamical RAM per process >      12.18 MB

     Estimated total dynamical RAM >      85.27 MB

     Check: negative core charge=   -0.000005

     Initial potential from superposition of free atoms

     starting charge      31.9997, renormalised to      32.0000

     negative rho (up, down):  1.486E-04 0.000E+00
     Starting wfcs are   32 randomized atomic wfcs

     total cpu time spent up to now is        1.3 secs

     per-process dynamical memory:    14.2 Mb

     Self-consistent Calculation

     iteration #  1     ecut=    60.00 Ry     beta= 0.70
     Davidson diagonalization with overlap
     ethr =  1.00E-02,  avg # of iterations = 13.3

     negative rho (up, down):  5.875E-03 0.000E+00

     total cpu time spent up to now is        4.8 secs

     total energy              =     -16.70010471 Ry
     estimated scf accuracy    <      49.95332499 Ry

     iteration #  2     ecut=    60.00 Ry     beta= 0.70
     Davidson diagonalization with overlap
     c_bands:  4 eigenvalues not converged
     c_bands:  3 eigenvalues not converged
     c_bands:  1 eigenvalues not converged
     c_bands:  2 eigenvalues not converged
     c_bands:  4 eigenvalues not converged
     c_bands:  1 eigenvalues not converged
     c_bands:  3 eigenvalues not converged
     c_bands:  3 eigenvalues not converged
     c_bands:  2 eigenvalues not converged
     c_bands:  3 eigenvalues not converged
     c_bands:  5 eigenvalues not converged
     c_bands:  3 eigenvalues not converged
     ethr =  1.00E-02,  avg # of iterations = 20.1

     total cpu time spent up to now is       10.3 secs

     total energy              =      32.39790220 Ry
     estimated scf accuracy    <     280.78933546 Ry

     iteration #  3     ecut=    60.00 Ry     beta= 0.70
     Davidson diagonalization with overlap
     c_bands:  2 eigenvalues not converged
     ethr =  1.00E-02,  avg # of iterations = 16.9

     total cpu time spent up to now is       14.7 secs

     total energy              =     -37.19958979 Ry
     estimated scf accuracy    <       7.06385467 Ry

     iteration #  4     ecut=    60.00 Ry     beta= 0.70
     Davidson diagonalization with overlap
     ethr =  1.00E-02,  avg # of iterations =  3.9

     total cpu time spent up to now is       16.0 secs

     total energy              =     -36.11732277 Ry
     estimated scf accuracy    <       4.35986779 Ry

     iteration #  5     ecut=    60.00 Ry     beta= 0.70
     Davidson diagonalization with overlap
     ethr =  1.00E-02,  avg # of iterations =  1.2

     total cpu time spent up to now is       17.0 secs

     total energy              =     -35.89939390 Ry
     estimated scf accuracy    <       3.23312342 Ry

     iteration #  6     ecut=    60.00 Ry     beta= 0.70
     Davidson diagonalization with overlap
     ethr =  1.00E-02,  avg # of iterations =  1.0

     total cpu time spent up to now is       18.0 secs

     total energy              =     -35.88491479 Ry
     estimated scf accuracy    <       2.04332550 Ry

     iteration #  7     ecut=    60.00 Ry     beta= 0.70
     Davidson diagonalization with overlap
     ethr =  6.39E-03,  avg # of iterations =  1.1

     total cpu time spent up to now is       19.0 secs

     total energy              =     -36.00510304 Ry
     estimated scf accuracy    <       1.73367888 Ry

     iteration #  8     ecut=    60.00 Ry     beta= 0.70
     Davidson diagonalization with overlap
     ethr =  5.42E-03,  avg # of iterations =  1.1

     total cpu time spent up to now is       20.0 secs

     total energy              =     -35.73384041 Ry
     estimated scf accuracy    <       1.83960379 Ry

     iteration #  9     ecut=    60.00 Ry     beta= 0.70
     Davidson diagonalization with overlap
     ethr =  5.42E-03,  avg # of iterations =  1.1

     total cpu time spent up to now is       21.3 secs

     total energy              =     -35.14448393 Ry
     estimated scf accuracy    <       1.41393437 Ry

     iteration # 10     ecut=    60.00 Ry     beta= 0.70
     Davidson diagonalization with overlap
     ethr =  4.42E-03,  avg # of iterations =  2.6

     negative rho (up, down):  4.179E-05 0.000E+00

     total cpu time spent up to now is       22.2 secs

     total energy              =     -34.91928868 Ry
     estimated scf accuracy    <       0.69349386 Ry

     iteration # 11     ecut=    60.00 Ry     beta= 0.70
     Davidson diagonalization with overlap
     c_bands:  1 eigenvalues not converged
     ethr =  2.17E-03,  avg # of iterations =  9.4

     negative rho (up, down):  9.217E-03 0.000E+00

     total cpu time spent up to now is       23.9 secs

     total energy              =     -35.21997561 Ry
     estimated scf accuracy    <       0.26903272 Ry

     iteration # 12     ecut=    60.00 Ry     beta= 0.70
     Davidson diagonalization with overlap
     c_bands:  1 eigenvalues not converged
     ethr =  8.41E-04,  avg # of iterations =  8.6

     negative rho (up, down):  1.286E-04 0.000E+00

     total cpu time spent up to now is       25.9 secs

     total energy              =     -35.21711340 Ry
     estimated scf accuracy    <       0.95677015 Ry

     iteration # 13     ecut=    60.00 Ry     beta= 0.70
     Davidson diagonalization with overlap
     ethr =  8.41E-04,  avg # of iterations =  2.3

     negative rho (up, down):  1.768E-02 0.000E+00

     total cpu time spent up to now is       27.0 secs

     total energy              =     -35.22823482 Ry
     estimated scf accuracy    <       0.46501352 Ry

     iteration # 14     ecut=    60.00 Ry     beta= 0.70
     Davidson diagonalization with overlap
     ethr =  8.41E-04,  avg # of iterations =  1.7

     negative rho (up, down):  3.180E-02 0.000E+00

     total cpu time spent up to now is       28.2 secs

     total energy              =     -35.21889927 Ry
     estimated scf accuracy    <       0.89004547 Ry

     iteration # 15     ecut=    60.00 Ry     beta= 0.70
     Davidson diagonalization with overlap
     ethr =  8.41E-04,  avg # of iterations =  1.7

     negative rho (up, down):  3.288E-05 0.000E+00

     total cpu time spent up to now is       29.3 secs

     total energy              =     -35.14066170 Ry
     estimated scf accuracy    <       0.79212091 Ry

     iteration # 16     ecut=    60.00 Ry     beta= 0.70
     Davidson diagonalization with overlap
     ethr =  8.41E-04,  avg # of iterations =  1.5

     negative rho (up, down):  1.313E-01 0.000E+00

     total cpu time spent up to now is       30.2 secs

     total energy              =     -35.13713318 Ry
     estimated scf accuracy    <       0.35229859 Ry

     iteration # 17     ecut=    60.00 Ry     beta= 0.70
     Davidson diagonalization with overlap
     c_bands:  1 eigenvalues not converged
     ethr =  8.41E-04,  avg # of iterations =  5.5

     negative rho (up, down):  1.053E-01 0.000E+00

     total cpu time spent up to now is       31.7 secs

     total energy              =     -35.20228346 Ry
     estimated scf accuracy    <       4.45275655 Ry

     iteration # 18     ecut=    60.00 Ry     beta= 0.70
     Davidson diagonalization with overlap
     ethr =  8.41E-04,  avg # of iterations =  1.4

     negative rho (up, down):  1.483E-01 0.000E+00

     total cpu time spent up to now is       32.8 secs

     total energy              =     -35.39231336 Ry
     estimated scf accuracy    <       2.14854527 Ry

     iteration # 19     ecut=    60.00 Ry     beta= 0.70
     Davidson diagonalization with overlap
     ethr =  8.41E-04,  avg # of iterations =  1.0

     negative rho (up, down):  1.801E-02 0.000E+00

     total cpu time spent up to now is       33.8 secs

     total energy              =     -34.03135714 Ry
     estimated scf accuracy    <       5.48088914 Ry

     iteration # 20     ecut=    60.00 Ry     beta= 0.70
     Davidson diagonalization with overlap
     c_bands:  1 eigenvalues not converged
     ethr =  8.41E-04,  avg # of iterations =  7.2

     negative rho (up, down):  1.122E-02 0.000E+00

     total cpu time spent up to now is       35.3 secs

     total energy              =     -35.14347025 Ry
     estimated scf accuracy    <       0.03742060 Ry

     iteration # 21     ecut=    60.00 Ry     beta= 0.70
     Davidson diagonalization with overlap
     c_bands:  1 eigenvalues not converged
     c_bands:  1 eigenvalues not converged
     c_bands:  2 eigenvalues not converged
     c_bands:  1 eigenvalues not converged
     ethr =  1.17E-04,  avg # of iterations =  8.7

     negative rho (up, down):  1.377E-03 0.000E+00

     total cpu time spent up to now is       37.1 secs

     total energy              =     -35.14401576 Ry
     estimated scf accuracy    <       0.02542859 Ry

     iteration # 22     ecut=    60.00 Ry     beta= 0.70
     Davidson diagonalization with overlap
     c_bands:  1 eigenvalues not converged
     c_bands:  3 eigenvalues not converged
     ethr =  7.95E-05,  avg # of iterations =  6.9

     negative rho (up, down):  1.197E-03 0.000E+00

     total cpu time spent up to now is       38.8 secs

     total energy              =     -35.14294828 Ry
     estimated scf accuracy    <       0.01650253 Ry

     iteration # 23     ecut=    60.00 Ry     beta= 0.70
     Davidson diagonalization with overlap
     c_bands:  1 eigenvalues not converged
     ethr =  5.16E-05,  avg # of iterations =  4.4

     negative rho (up, down):  1.094E-03 0.000E+00

     total cpu time spent up to now is       40.1 secs

     total energy              =     -35.14164657 Ry
     estimated scf accuracy    <       0.01301630 Ry

     iteration # 24     ecut=    60.00 Ry     beta= 0.70
     Davidson diagonalization with overlap
     ethr =  4.07E-05,  avg # of iterations =  2.7

     negative rho (up, down):  1.029E-03 0.000E+00

     total cpu time spent up to now is       41.2 secs

     total energy              =     -35.13980776 Ry
     estimated scf accuracy    <       0.01056163 Ry

     iteration # 25     ecut=    60.00 Ry     beta= 0.70
     Davidson diagonalization with overlap
     ethr =  3.30E-05,  avg # of iterations =  3.0

     negative rho (up, down):  7.691E-04 0.000E+00

     total cpu time spent up to now is       42.4 secs

     total energy              =     -35.13907537 Ry
     estimated scf accuracy    <       0.00777591 Ry

     iteration # 26     ecut=    60.00 Ry     beta= 0.70
     Davidson diagonalization with overlap
     c_bands:  1 eigenvalues not converged
     ethr =  2.43E-05,  avg # of iterations =  3.3

     negative rho (up, down):  5.073E-04 0.000E+00

     total cpu time spent up to now is       43.6 secs

     total energy              =     -35.13583173 Ry
     estimated scf accuracy    <       0.00627560 Ry

     iteration # 27     ecut=    60.00 Ry     beta= 0.70
     Davidson diagonalization with overlap
     ethr =  1.96E-05,  avg # of iterations =  5.9

     negative rho (up, down):  4.328E-04 0.000E+00

     total cpu time spent up to now is       44.9 secs

     total energy              =     -35.13668203 Ry
     estimated scf accuracy    <       0.00103282 Ry

     iteration # 28     ecut=    60.00 Ry     beta= 0.70
     Davidson diagonalization with overlap
     ethr =  3.23E-06,  avg # of iterations =  8.6

     negative rho (up, down):  4.888E-03 0.000E+00

     total cpu time spent up to now is       46.7 secs

     total energy              =     -35.13645219 Ry
     estimated scf accuracy    <       0.00138081 Ry

     iteration # 29     ecut=    60.00 Ry     beta= 0.70
     Davidson diagonalization with overlap
     c_bands:  1 eigenvalues not converged
     c_bands:  1 eigenvalues not converged
     ethr =  3.23E-06,  avg # of iterations =  8.1

     negative rho (up, down):  4.870E-03 0.000E+00

     total cpu time spent up to now is       48.6 secs

     total energy              =     -35.13664564 Ry
     estimated scf accuracy    <       0.00007580 Ry

     iteration # 30     ecut=    60.00 Ry     beta= 0.70
     Davidson diagonalization with overlap
     c_bands:  1 eigenvalues not converged
     ethr =  2.37E-07,  avg # of iterations =  6.4

     negative rho (up, down):  4.888E-03 0.000E+00

     total cpu time spent up to now is       51.0 secs

     total energy              =     -35.13669519 Ry
     estimated scf accuracy    <       0.00001918 Ry

     iteration # 31     ecut=    60.00 Ry     beta= 0.70
     Davidson diagonalization with overlap
     c_bands:  1 eigenvalues not converged
     ethr =  5.99E-08,  avg # of iterations =  5.9

     negative rho (up, down):  4.849E-03 0.000E+00

     total cpu time spent up to now is       52.7 secs

     total energy              =     -35.13670468 Ry
     estimated scf accuracy    <       0.00000343 Ry

     iteration # 32     ecut=    60.00 Ry     beta= 0.70
     Davidson diagonalization with overlap
     c_bands:  1 eigenvalues not converged
     ethr =  1.07E-08,  avg # of iterations =  7.6

     negative rho (up, down):  4.854E-03 0.000E+00

     total cpu time spent up to now is       55.3 secs

     total energy              =     -35.13670803 Ry
     estimated scf accuracy    <       0.00000262 Ry

     iteration # 33     ecut=    60.00 Ry     beta= 0.70
     Davidson diagonalization with overlap
     c_bands:  1 eigenvalues not converged
     ethr =  8.18E-09,  avg # of iterations =  2.9

     negative rho (up, down):  4.860E-03 0.000E+00

     total cpu time spent up to now is       56.4 secs

     total energy              =     -35.13670788 Ry
     estimated scf accuracy    <       0.00000130 Ry

     iteration # 34     ecut=    60.00 Ry     beta= 0.70
     Davidson diagonalization with overlap
     ethr =  4.05E-09,  avg # of iterations =  4.1

     negative rho (up, down):  4.854E-03 0.000E+00

     total cpu time spent up to now is       57.7 secs

     total energy              =     -35.13670805 Ry
     estimated scf accuracy    <       0.00000024 Ry

     iteration # 35     ecut=    60.00 Ry     beta= 0.70
     Davidson diagonalization with overlap
     ethr =  7.46E-10,  avg # of iterations =  7.3

     negative rho (up, down):  4.855E-03 0.000E+00

     total cpu time spent up to now is       60.3 secs

     total energy              =     -35.13670831 Ry
     estimated scf accuracy    <       0.00000001 Ry

     iteration # 36     ecut=    60.00 Ry     beta= 0.70
     Davidson diagonalization with overlap
     ethr =  4.29E-11,  avg # of iterations = 10.1

     negative rho (up, down):  4.854E-03 0.000E+00

     total cpu time spent up to now is       63.3 secs

     total energy              =     -35.13670834 Ry
     estimated scf accuracy    <       0.00000003 Ry

     iteration # 37     ecut=    60.00 Ry     beta= 0.70
     Davidson diagonalization with overlap
     ethr =  4.29E-11,  avg # of iterations =  1.8

     negative rho (up, down):  4.854E-03 0.000E+00

     total cpu time spent up to now is       64.4 secs

     End of self-consistent calculation

          k = 0.0000 0.0000 0.0000 (  4149 PWs)   bands (ev):

   -34.0577 -34.0577 -27.8885 -23.1346 -21.0939 -21.0939 -17.8221 -15.1507
   -15.1507  -8.1324  -7.9586  -5.9765  -2.4504  -2.4504  -1.6370   6.8791
     7.0846   8.4118   9.0532   9.5264

          k = 0.0000 0.0962 0.0000 (  4170 PWs)   bands (ev):

   -34.2333 -34.1257 -28.4318 -23.0626 -20.7241 -20.0178 -17.6680 -15.4601
   -15.3518  -8.1448  -8.0183  -5.8464  -2.2157  -2.0244  -1.5209   7.1052
     7.3129   8.2528   8.6296   8.7497

          k = 0.0000 0.1925 0.0000 (  4194 PWs)   bands (ev):

   -34.6770 -34.3782 -29.3151 -22.8387 -19.7285 -17.8161 -16.9168 -16.2636
   -15.8552  -8.6868  -7.6747  -5.5924  -1.4917  -1.1818  -0.8824   6.7736
     7.7831   7.9875   8.0307   8.1775

          k = 0.0000 0.2887 0.0000 (  4186 PWs)   bands (ev):

   -35.2153 -34.8542 -29.8285 -22.4637 -18.3828 -17.3153 -16.8484 -16.4567
   -13.9985  -9.5119  -7.1445  -5.3949  -0.6446  -0.3411   0.6645   5.1231
     6.7979   7.2214   8.3181   8.9133

          k = 0.0000 0.3849 0.0000 (  4180 PWs)   bands (ev):

   -35.6948 -35.4125 -29.9406 -21.9328 -18.4217 -17.0218 -16.9861 -16.0209
   -10.6898 -10.2337  -6.5708  -5.2060   0.0400   0.9946   2.2462   3.5114
     5.3537   5.4045   6.5375   9.7942

          k = 0.0000 0.4811 0.0000 (  4172 PWs)   bands (ev):

   -36.0165 -35.8366 -29.8814 -21.2714 -19.4734 -17.3375 -15.9991 -15.1730
   -11.5380  -6.7571  -6.1904  -4.9412   0.7765   1.8752   2.1386   2.8241
     3.4544   4.1924   6.0923   8.0521

          k = 0.0000-0.5774 0.0000 (  4184 PWs)   bands (ev):

   -36.1294 -35.9919 -29.8404 -20.6143 -20.2651 -17.4605 -15.6159 -14.7113
   -12.0540  -6.0884  -4.7785  -4.5147   0.1388   1.3042   1.8966   2.6170
     3.7293   3.9129   5.9381   7.3402

          k = 0.0833 0.1443 0.0000 (  4169 PWs)   bands (ev):

   -34.6185 -34.2006 -29.1161 -22.9112 -20.0142 -18.3831 -17.2737 -15.9796
   -15.7391  -8.5098  -7.7835  -5.6449  -1.8119  -1.2936  -1.1748   7.3068
     7.5571   7.7665   8.0436   8.4907

          k = 0.0833 0.2406 0.0000 (  4180 PWs)   bands (ev):

   -35.2658 -34.3671 -29.7852 -22.6108 -18.7884 -17.1293 -16.8415 -16.3488
   -15.2271  -9.1903  -7.3206  -5.4143  -1.0073  -0.8572   0.2661   5.9214
     6.9314   7.3242   8.4606   8.6625

          k = 0.0833 0.3368 0.0000 (  4175 PWs)   bands (ev):

   -35.9456 -34.6558 -30.1028 -22.1616 -17.8793 -17.3762 -16.9415 -16.3600
   -11.9514 -10.0918  -6.7127  -5.2258  -0.2540   0.1418   1.8795   4.2691
     5.7211   5.9526   7.3419   9.8161

          k = 0.0833 0.4330 0.0000 (  4187 PWs)   bands (ev):

   -36.4874 -34.9597 -30.1415 -21.5677 -18.9373 -17.3906 -16.1344 -15.5018
   -11.1359  -8.3521  -6.1610  -5.0194   0.4303   1.3773   2.7332   3.1583
     3.6822   4.7856   6.0397   8.4652

          k = 0.0833 0.5292 0.0000 (  4195 PWs)   bands (ev):

   -36.7835 -35.1466 -30.0979 -20.8470 -19.9140 -17.6300 -15.4012 -14.7472
   -11.9766  -5.8950  -5.1129  -4.7847   0.7311   0.9983   2.1349   2.3517
     3.1553   4.6692   5.5403   7.1496

          k = 0.1667 0.2887 0.0000 (  4170 PWs)   bands (ev):

   -36.0676 -34.2582 -30.2686 -22.2361 -17.5336 -17.4044 -17.0891 -16.4805
   -12.5504  -9.9476  -6.7338  -5.1678  -0.3603  -0.3234   1.8363   5.0146
     5.0404   6.1963   7.9499   9.7469

          k = 0.1667 0.3849 0.0000 (  4172 PWs)   bands (ev):

   -36.7712 -34.2028 -30.5826 -21.7179 -18.3949 -17.7109 -15.9825 -15.6917
   -10.8731  -9.4000  -6.0391  -4.9639   0.2148   0.6140   3.1581   3.2761
     3.8787   5.1919   6.2666   8.2400

          k = 0.1667 0.4811 0.0000 (  4170 PWs)   bands (ev):

   -37.2371 -34.2083 -30.7095 -21.0592 -19.3462 -18.0699 -14.9779 -14.7726
   -11.8164  -6.1313  -5.4941  -4.7746   0.5946   1.5990   1.7895   2.3665
     3.1248   5.1155   5.2739   6.3512

          k = 0.1667 0.5774 0.0000 (  4178 PWs)   bands (ev):

   -37.3992 -34.2207 -30.7350 -20.3761 -20.1421 -18.1884 -14.5883 -14.2631
   -12.3459  -5.3246  -4.6465  -4.0231  -0.0226   0.6375   2.2170   2.3503
     2.4661   4.7025   5.5849   5.7329

          k = 0.2500 0.4330 0.0000 (  4156 PWs)   bands (ev):

   -37.3919 -33.7116 -31.1129 -21.1358 -18.8584 -18.5263 -14.8999 -14.6358
   -11.7330  -6.6041  -5.2999  -4.7445   0.4280   1.2221   2.3427   2.4120
     3.1670   5.1127   5.4935   5.7264

          k = 0.2500 0.5292 0.0000 (  4161 PWs)   bands (ev):

   -37.7201 -33.3372 -31.5080 -20.4259 -19.6067 -18.8740 -14.1332 -13.7812
   -12.5589  -4.8203  -4.5869  -3.8729   0.0573   0.3044   1.8323   2.4984
     2.5300   4.1809   4.4945   6.1232

          k = 0.3333 0.5774 0.0000 (  4152 PWs)   bands (ev):

   -37.8859 -32.4128 -32.4128 -19.7082 -19.7082 -19.6433 -13.3454 -13.3349
   -13.3349  -4.5194  -4.5194  -1.6974  -1.6974  -0.1731   2.0740   2.0740
     3.2369   3.2369   3.8884   6.4590

     the Fermi energy is     3.4830 ev

!    total energy              =     -35.13670834 Ry
     estimated scf accuracy    <          1.8E-09 Ry
     smearing contrib. (-TS)   =       0.00172898 Ry
     internal energy E=F+TS    =     -35.13843732 Ry

     The total energy is F=E-TS. E is the sum of the following terms:
     one-electron contribution =   -2294.08780358 Ry
     hartree contribution      =    1159.39251821 Ry
     xc contribution           =     -49.25697216 Ry
     ewald contribution        =    1148.81382020 Ry

     convergence has been achieved in  37 iterations

     negative rho (up, down):  4.854E-03 0.000E+00

     Forces acting on atoms (cartesian axes, Ry/au):

     atom    1 type  1   force =     0.00000000    0.00000000  -21.80406331
     atom    2 type  1   force =     0.00000000   -0.00000000  -21.80406331
     atom    3 type  1   force =     0.00000000   -0.00000000    2.99280963
     atom    4 type  1   force =     0.00000000    0.00000000    2.99280963
     atom    5 type  1   force =     0.00000000   -0.00000000   -2.98892637
     atom    6 type  1   force =     0.00000000    0.00000000   -2.98892637
     atom    7 type  1   force =     0.00000000    0.00000000   21.80018005
     atom    8 type  1   force =     0.00000000   -0.00000000   21.80018005

     Total force =    44.012626     Total SCF correction =     0.000234


     Computing stress (Cartesian axis) and pressure


     negative rho (up, down):  4.854E-03 0.000E+00
          total   stress  (Ry/bohr**3)                   (kbar)     P=    12946.04
   0.02195407   0.00000000   0.00000000         3229.56        0.00        0.00
   0.00000000   0.02195407   0.00000000            0.00     3229.56        0.00
  -0.00000000   0.00000000   0.22010793           -0.00        0.00    32378.99


     Writing all to output data dir /home/rfa/Skripsi/DFT/dft-graphene/tmp/gr-aa-4L.save/ :
     XML data file, charge density, pseudopotentials, collected wavefunctions

     init_run     :      1.17s CPU      1.20s WALL (       1 calls)
     electrons    :    111.18s CPU     63.09s WALL (       1 calls)
     forces       :      0.39s CPU      0.22s WALL (       1 calls)
     stress       :      1.25s CPU      0.73s WALL (       1 calls)

     Called by init_run:
     wfcinit      :      0.79s CPU      0.52s WALL (       1 calls)
     potinit      :      0.01s CPU      0.01s WALL (       1 calls)
     hinit0       :      0.34s CPU      0.63s WALL (       1 calls)

     Called by electrons:
     c_bands      :     98.66s CPU     55.68s WALL (      37 calls)
     sum_band     :     10.92s CPU      6.06s WALL (      37 calls)
     v_of_rho     :      0.62s CPU      0.61s WALL (      38 calls)
     newd         :      0.50s CPU      0.41s WALL (      38 calls)
     mix_rho      :      0.38s CPU      0.25s WALL (      37 calls)

     Called by c_bands:
     init_us_2    :      2.42s CPU      1.30s WALL (    1463 calls)
     cegterg      :     94.51s CPU     53.32s WALL (     705 calls)

     Called by *egterg:
     cdiaghg      :      8.98s CPU      4.76s WALL (    4506 calls)
     h_psi        :     63.42s CPU     36.79s WALL (    4525 calls)
     s_psi        :      4.41s CPU      2.39s WALL (    4525 calls)
     g_psi        :      0.66s CPU      0.34s WALL (    3801 calls)

     Called by h_psi:
     h_psi:calbec :      7.85s CPU      4.57s WALL (    4525 calls)
     vloc_psi     :     49.77s CPU     29.03s WALL (    4525 calls)
     add_vuspsi   :      5.09s CPU      2.78s WALL (    4525 calls)

     General routines
     calbec       :     10.08s CPU      5.79s WALL (    5551 calls)
     fft          :      0.53s CPU      0.82s WALL (     443 calls)
     ffts         :      0.02s CPU      0.01s WALL (      37 calls)
     fftw         :     49.45s CPU     28.88s WALL (  109314 calls)

     Parallel routines

     PWSCF        :   1m54.14s CPU   1m 5.72s WALL


   This run was terminated on:  14:43:30  16Apr2025            

=------------------------------------------------------------------------------=
   JOB DONE.
=------------------------------------------------------------------------------=
