
     Program PWSCF v.7.4.1 starts on 16Apr2025 at 14:45:54 

     This program is part of the open-source Quantum ESPRESSO suite
     for quantum simulation of materials; please cite
         "P. Giannozzi et al., J. Phys.:Condens. Matter 21 395502 (2009);
         "P. Giannozzi et al., J. Phys.:Condens. Matter 29 465901 (2017);
         "P. Giannozzi et al., J. Chem. Phys. 152 154105 (2020);
          URL http://www.quantum-espresso.org", 
     in publications or presentations arising from this work. More details at
     http://www.quantum-espresso.org/quote

     Parallel version (MPI), running on     7 processors

     MPI processes distributed on     1 nodes
     13543 MiB available memory on the printing compute node when the environment starts

     Waiting for input...
     Reading input from standard input

     Current dimensions of program PWSCF are:
     Max number of different atomic species (ntypx) = 10
     Max number of k-points (npk) =  40000
     Max angular momentum in pseudopotentials (lmaxx) =  4

     R & G space division:  proc/nbgrp/npool/nimage =       7
     Subspace diagonalization in iterative solution of the eigenvalue problem:
     a serial algorithm will be used


     Parallelization info
     --------------------
     sticks:   dense  smooth     PW     G-vecs:    dense   smooth      PW
     Min          62      62     19                 6632     6632    1108
     Max          63      63     21                 6655     6655    1119
     Sum         439     439    139                46531    46531    7785

     Using Slab Decomposition



     bravais-lattice index     =            4
     lattice parameter (alat)  =       4.6561  a.u.
     unit-cell volume          =     532.1899 (a.u.)^3
     number of atoms/cell      =            8
     number of atomic types    =            1
     number of electrons       =        32.00
     number of Kohn-Sham states=           20
     kinetic-energy cutoff     =      75.0000  Ry
     charge density cutoff     =     300.0000  Ry
     scf convergence threshold =      1.0E-08
     mixing beta               =       0.7000
     number of iterations used =            8  plain     mixing
     Exchange-correlation= PBE
                           (   1   4   3   4   0   0   0)

     celldm(1)=   4.656107  celldm(2)=   0.000000  celldm(3)=   6.087896
     celldm(4)=   0.000000  celldm(5)=   0.000000  celldm(6)=   0.000000

     crystal axes: (cart. coord. in units of alat)
               a(1) = (   1.000000   0.000000   0.000000 )  
               a(2) = (  -0.500000   0.866025   0.000000 )  
               a(3) = (   0.000000   0.000000   6.087896 )  

     reciprocal axes: (cart. coord. in units 2 pi/alat)
               b(1) = (  1.000000  0.577350 -0.000000 )  
               b(2) = (  0.000000  1.154701  0.000000 )  
               b(3) = (  0.000000 -0.000000  0.164260 )  


     PseudoPot. # 1 for C  read from file:
     /home/rfa/Skripsi/DFT/dft-graphene/pseudo/C.pbe-n-rrkjus_psl.0.1.UPF
     MD5 check sum: 96a6a315177d77e6c95bf6fd3870f9e3
     Pseudo is Ultrasoft + core correction, Zval =  4.0
     Generated using &quot;atomic&quot; code by A. Dal Corso  v.6.3MaX
     Using radial grid of 1073 points,  4 beta functions with: 
                l(1) =   0
                l(2) =   0
                l(3) =   1
                l(4) =   1
     Q(r) pseudized with 0 coefficients 


     atomic species   valence    mass     pseudopotential
     C                 4.00    12.01070     C ( 1.00)

     12 Sym. Ops. (no inversion) found



   Cartesian axes

     site n.     atom                  positions (alat units)
         1        C      tau(   1) = (   0.0000000   0.5773503   3.0439478  )
         2        C      tau(   2) = (   0.5000000   0.2886751   3.0439478  )
         3        C      tau(   3) = (   0.0000000   0.5773503   3.2468777  )
         4        C      tau(   4) = (   0.5000000   0.2886751   3.2468777  )
         5        C      tau(   5) = (   0.0000000   0.5773503   3.4498075  )
         6        C      tau(   6) = (   0.5000000   0.2886751   3.4498075  )
         7        C      tau(   7) = (   0.0000000   0.5773503   3.6527374  )
         8        C      tau(   8) = (   0.5000000   0.2886751   3.6527374  )

     number of k points=    19  Marzari-Vanderbilt smearing, width (Ry)=  0.0200
                       cart. coord. in units 2pi/alat
        k(    1) = (   0.0000000   0.0000000   0.0000000), wk =   0.0138889
        k(    2) = (   0.0000000   0.0962250   0.0000000), wk =   0.0833333
        k(    3) = (   0.0000000   0.1924501   0.0000000), wk =   0.0833333
        k(    4) = (   0.0000000   0.2886751   0.0000000), wk =   0.0833333
        k(    5) = (   0.0000000   0.3849002   0.0000000), wk =   0.0833333
        k(    6) = (   0.0000000   0.4811252   0.0000000), wk =   0.0833333
        k(    7) = (   0.0000000  -0.5773503   0.0000000), wk =   0.0416667
        k(    8) = (   0.0833333   0.1443376   0.0000000), wk =   0.0833333
        k(    9) = (   0.0833333   0.2405626   0.0000000), wk =   0.1666667
        k(   10) = (   0.0833333   0.3367877   0.0000000), wk =   0.1666667
        k(   11) = (   0.0833333   0.4330127   0.0000000), wk =   0.1666667
        k(   12) = (   0.0833333   0.5292377   0.0000000), wk =   0.1666667
        k(   13) = (   0.1666667   0.2886751   0.0000000), wk =   0.0833333
        k(   14) = (   0.1666667   0.3849002   0.0000000), wk =   0.1666667
        k(   15) = (   0.1666667   0.4811252   0.0000000), wk =   0.1666667
        k(   16) = (   0.1666667   0.5773503   0.0000000), wk =   0.0833333
        k(   17) = (   0.2500000   0.4330127   0.0000000), wk =   0.0833333
        k(   18) = (   0.2500000   0.5292377   0.0000000), wk =   0.1666667
        k(   19) = (   0.3333333   0.5773503   0.0000000), wk =   0.0277778

     Dense  grid:    46531 G-vectors     FFT dimensions: (  25,  25, 160)

     Estimated max dynamical RAM per process >      16.71 MB

     Estimated total dynamical RAM >     116.95 MB

     Check: negative core charge=   -0.000003

     Initial potential from superposition of free atoms

     starting charge      31.9997, renormalised to      32.0000

     negative rho (up, down):  7.393E-05 0.000E+00
     Starting wfcs are   32 randomized atomic wfcs

     total cpu time spent up to now is        1.4 secs

     per-process dynamical memory:    16.9 Mb

     Self-consistent Calculation

     iteration #  1     ecut=    75.00 Ry     beta= 0.70
     Davidson diagonalization with overlap
     ethr =  1.00E-02,  avg # of iterations = 13.0

     negative rho (up, down):  6.757E-04 0.000E+00

     total cpu time spent up to now is        6.0 secs

     total energy              =     -16.65194635 Ry
     estimated scf accuracy    <      50.15134124 Ry

     iteration #  2     ecut=    75.00 Ry     beta= 0.70
     Davidson diagonalization with overlap
     c_bands:  4 eigenvalues not converged
     c_bands:  4 eigenvalues not converged
     c_bands:  2 eigenvalues not converged
     c_bands:  3 eigenvalues not converged
     c_bands:  3 eigenvalues not converged
     c_bands:  3 eigenvalues not converged
     c_bands:  3 eigenvalues not converged
     c_bands:  1 eigenvalues not converged
     c_bands:  4 eigenvalues not converged
     c_bands:  3 eigenvalues not converged
     c_bands:  3 eigenvalues not converged
     c_bands:  1 eigenvalues not converged
     ethr =  1.00E-02,  avg # of iterations = 20.7

     total cpu time spent up to now is       13.3 secs

     total energy              =      30.46383190 Ry
     estimated scf accuracy    <     268.66252742 Ry

     iteration #  3     ecut=    75.00 Ry     beta= 0.70
     Davidson diagonalization with overlap
     c_bands:  1 eigenvalues not converged
     c_bands:  1 eigenvalues not converged
     c_bands:  1 eigenvalues not converged
     ethr =  1.00E-02,  avg # of iterations = 16.3

     total cpu time spent up to now is       19.5 secs

     total energy              =     -37.27476929 Ry
     estimated scf accuracy    <       7.18515619 Ry

     iteration #  4     ecut=    75.00 Ry     beta= 0.70
     Davidson diagonalization with overlap
     ethr =  1.00E-02,  avg # of iterations =  3.3

     total cpu time spent up to now is       21.0 secs

     total energy              =     -35.90098452 Ry
     estimated scf accuracy    <       4.38548404 Ry

     iteration #  5     ecut=    75.00 Ry     beta= 0.70
     Davidson diagonalization with overlap
     ethr =  1.00E-02,  avg # of iterations =  1.1

     total cpu time spent up to now is       22.2 secs

     total energy              =     -35.91318313 Ry
     estimated scf accuracy    <       2.12923421 Ry

     iteration #  6     ecut=    75.00 Ry     beta= 0.70
     Davidson diagonalization with overlap
     ethr =  6.65E-03,  avg # of iterations =  1.1

     total cpu time spent up to now is       23.4 secs

     total energy              =     -35.95323217 Ry
     estimated scf accuracy    <       1.93188913 Ry

     iteration #  7     ecut=    75.00 Ry     beta= 0.70
     Davidson diagonalization with overlap
     ethr =  6.04E-03,  avg # of iterations =  1.0

     total cpu time spent up to now is       24.7 secs

     total energy              =     -36.00195116 Ry
     estimated scf accuracy    <       1.79018694 Ry

     iteration #  8     ecut=    75.00 Ry     beta= 0.70
     Davidson diagonalization with overlap
     ethr =  5.59E-03,  avg # of iterations =  1.5

     total cpu time spent up to now is       25.8 secs

     total energy              =     -36.41150481 Ry
     estimated scf accuracy    <       1.81019399 Ry

     iteration #  9     ecut=    75.00 Ry     beta= 0.70
     Davidson diagonalization with overlap
     ethr =  5.59E-03,  avg # of iterations =  1.1

     negative rho (up, down):  1.620E-01 0.000E+00

     total cpu time spent up to now is       27.0 secs

     total energy              =     -35.00357100 Ry
     estimated scf accuracy    <       2.16155965 Ry

     iteration # 10     ecut=    75.00 Ry     beta= 0.70
     Davidson diagonalization with overlap
     c_bands:  1 eigenvalues not converged
     c_bands:  2 eigenvalues not converged
     c_bands:  1 eigenvalues not converged
     c_bands:  2 eigenvalues not converged
     ethr =  5.59E-03,  avg # of iterations =  9.7

     negative rho (up, down):  5.963E-04 0.000E+00

     total cpu time spent up to now is       29.5 secs

     total energy              =     -34.47344698 Ry
     estimated scf accuracy    <       6.54406377 Ry

     iteration # 11     ecut=    75.00 Ry     beta= 0.70
     Davidson diagonalization with overlap
     ethr =  5.59E-03,  avg # of iterations =  3.1

     total cpu time spent up to now is       31.0 secs

     total energy              =     -35.24464660 Ry
     estimated scf accuracy    <       0.44752333 Ry

     iteration # 12     ecut=    75.00 Ry     beta= 0.70
     Davidson diagonalization with overlap
     ethr =  1.40E-03,  avg # of iterations =  5.3

     total cpu time spent up to now is       32.7 secs

     total energy              =     -35.37253131 Ry
     estimated scf accuracy    <       0.48923522 Ry

     iteration # 13     ecut=    75.00 Ry     beta= 0.70
     Davidson diagonalization with overlap
     ethr =  1.40E-03,  avg # of iterations =  1.7

     total cpu time spent up to now is       34.1 secs

     total energy              =     -35.36636288 Ry
     estimated scf accuracy    <       0.73470117 Ry

     iteration # 14     ecut=    75.00 Ry     beta= 0.70
     Davidson diagonalization with overlap
     ethr =  1.40E-03,  avg # of iterations =  1.0

     negative rho (up, down):  2.440E-05 0.000E+00

     total cpu time spent up to now is       35.3 secs

     total energy              =     -35.95400276 Ry
     estimated scf accuracy    <       0.67535027 Ry

     iteration # 15     ecut=    75.00 Ry     beta= 0.70
     Davidson diagonalization with overlap
     c_bands:  2 eigenvalues not converged
     c_bands:  2 eigenvalues not converged
     c_bands:  1 eigenvalues not converged
     ethr =  1.40E-03,  avg # of iterations = 11.1

     total cpu time spent up to now is       38.5 secs

     total energy              =     -36.10779041 Ry
     estimated scf accuracy    <       1.93685283 Ry

     iteration # 16     ecut=    75.00 Ry     beta= 0.70
     Davidson diagonalization with overlap
     ethr =  1.40E-03,  avg # of iterations =  1.7

     total cpu time spent up to now is       39.7 secs

     total energy              =     -35.70431279 Ry
     estimated scf accuracy    <       1.32359822 Ry

     iteration # 17     ecut=    75.00 Ry     beta= 0.70
     Davidson diagonalization with overlap
     ethr =  1.40E-03,  avg # of iterations =  1.0

     negative rho (up, down):  1.121E-04 0.000E+00

     total cpu time spent up to now is       40.9 secs

     total energy              =     -36.09440473 Ry
     estimated scf accuracy    <       0.78593449 Ry

     iteration # 18     ecut=    75.00 Ry     beta= 0.70
     Davidson diagonalization with overlap
     ethr =  1.40E-03,  avg # of iterations =  1.0

     total cpu time spent up to now is       42.2 secs

     total energy              =     -35.30416844 Ry
     estimated scf accuracy    <       1.38987679 Ry

     iteration # 19     ecut=    75.00 Ry     beta= 0.70
     Davidson diagonalization with overlap
     ethr =  1.40E-03,  avg # of iterations =  2.8

     negative rho (up, down):  5.087E-04 0.000E+00

     total cpu time spent up to now is       43.9 secs

     total energy              =     -35.14699814 Ry
     estimated scf accuracy    <       0.35025836 Ry

     iteration # 20     ecut=    75.00 Ry     beta= 0.70
     Davidson diagonalization with overlap
     ethr =  1.09E-03,  avg # of iterations =  7.3

     negative rho (up, down):  2.487E-04 0.000E+00

     total cpu time spent up to now is       46.1 secs

     total energy              =     -35.20816090 Ry
     estimated scf accuracy    <       0.26072128 Ry

     iteration # 21     ecut=    75.00 Ry     beta= 0.70
     Davidson diagonalization with overlap
     ethr =  8.15E-04,  avg # of iterations =  1.7

     negative rho (up, down):  1.339E-03 0.000E+00

     total cpu time spent up to now is       47.6 secs

     total energy              =     -35.16151186 Ry
     estimated scf accuracy    <       0.11066649 Ry

     iteration # 22     ecut=    75.00 Ry     beta= 0.70
     Davidson diagonalization with overlap
     ethr =  3.46E-04,  avg # of iterations =  5.3

     negative rho (up, down):  7.192E-04 0.000E+00

     total cpu time spent up to now is       50.0 secs

     total energy              =     -35.17981157 Ry
     estimated scf accuracy    <       0.10835852 Ry

     iteration # 23     ecut=    75.00 Ry     beta= 0.70
     Davidson diagonalization with overlap
     ethr =  3.39E-04,  avg # of iterations =  1.5

     negative rho (up, down):  4.900E-04 0.000E+00

     total cpu time spent up to now is       51.3 secs

     total energy              =     -35.17362113 Ry
     estimated scf accuracy    <       0.02913202 Ry

     iteration # 24     ecut=    75.00 Ry     beta= 0.70
     Davidson diagonalization with overlap
     c_bands:  2 eigenvalues not converged
     ethr =  9.10E-05,  avg # of iterations =  8.0

     negative rho (up, down):  9.136E-04 0.000E+00

     total cpu time spent up to now is       53.8 secs

     total energy              =     -35.18611222 Ry
     estimated scf accuracy    <       0.00111166 Ry

     iteration # 25     ecut=    75.00 Ry     beta= 0.70
     Davidson diagonalization with overlap
     c_bands:  2 eigenvalues not converged
     c_bands:  1 eigenvalues not converged
     c_bands:  1 eigenvalues not converged
     ethr =  3.47E-06,  avg # of iterations = 14.9

     negative rho (up, down):  7.808E-04 0.000E+00

     total cpu time spent up to now is       60.8 secs

     total energy              =     -35.18945752 Ry
     estimated scf accuracy    <       0.00071826 Ry

     iteration # 26     ecut=    75.00 Ry     beta= 0.70
     Davidson diagonalization with overlap
     c_bands:  1 eigenvalues not converged
     c_bands:  1 eigenvalues not converged
     ethr =  2.24E-06,  avg # of iterations =  5.7

     negative rho (up, down):  7.337E-04 0.000E+00

     total cpu time spent up to now is       62.8 secs

     total energy              =     -35.18955875 Ry
     estimated scf accuracy    <       0.00015618 Ry

     iteration # 27     ecut=    75.00 Ry     beta= 0.70
     Davidson diagonalization with overlap
     ethr =  4.88E-07,  avg # of iterations =  4.6

     negative rho (up, down):  7.706E-04 0.000E+00

     total cpu time spent up to now is       64.9 secs

     total energy              =     -35.18961690 Ry
     estimated scf accuracy    <       0.00001421 Ry

     iteration # 28     ecut=    75.00 Ry     beta= 0.70
     Davidson diagonalization with overlap
     ethr =  4.44E-08,  avg # of iterations =  8.1

     negative rho (up, down):  7.686E-04 0.000E+00

     total cpu time spent up to now is       68.7 secs

     total energy              =     -35.18964094 Ry
     estimated scf accuracy    <       0.00000538 Ry

     iteration # 29     ecut=    75.00 Ry     beta= 0.70
     Davidson diagonalization with overlap
     ethr =  1.68E-08,  avg # of iterations =  4.6

     negative rho (up, down):  7.682E-04 0.000E+00

     total cpu time spent up to now is       70.7 secs

     total energy              =     -35.18964243 Ry
     estimated scf accuracy    <       0.00000071 Ry

     iteration # 30     ecut=    75.00 Ry     beta= 0.70
     Davidson diagonalization with overlap
     ethr =  2.23E-09,  avg # of iterations =  6.6

     negative rho (up, down):  7.685E-04 0.000E+00

     total cpu time spent up to now is       73.6 secs

     total energy              =     -35.18964310 Ry
     estimated scf accuracy    <       0.00000013 Ry

     iteration # 31     ecut=    75.00 Ry     beta= 0.70
     Davidson diagonalization with overlap
     ethr =  4.20E-10,  avg # of iterations =  5.8

     negative rho (up, down):  7.675E-04 0.000E+00

     total cpu time spent up to now is       76.3 secs

     total energy              =     -35.18964320 Ry
     estimated scf accuracy    <       0.00000003 Ry

     iteration # 32     ecut=    75.00 Ry     beta= 0.70
     Davidson diagonalization with overlap
     ethr =  9.44E-11,  avg # of iterations =  6.7

     negative rho (up, down):  7.680E-04 0.000E+00

     total cpu time spent up to now is       78.9 secs

     End of self-consistent calculation

          k = 0.0000 0.0000 0.0000 (  5827 PWs)   bands (ev):

   -34.0339 -34.0339 -27.8727 -23.1607 -21.0714 -21.0714 -17.8061 -15.1384
   -15.1384  -8.1181  -7.9304  -6.0463  -2.4368  -2.4368  -1.6081   7.4733
     7.4917   8.8779   9.0667   9.0667

          k = 0.0000 0.0962 0.0000 (  5879 PWs)   bands (ev):

   -34.2095 -34.1016 -28.4151 -23.0846 -20.7006 -19.9952 -17.6528 -15.4504
   -15.3400  -8.1202  -8.0036  -5.9072  -2.2044  -2.0108  -1.4920   7.7013
     7.7156   8.2694   8.7634   9.1323

          k = 0.0000 0.1925 0.0000 (  5881 PWs)   bands (ev):

   -34.6530 -34.3544 -29.2968 -22.8570 -19.7041 -17.7945 -16.8996 -16.2577
   -15.8433  -8.6643  -7.6603  -5.6450  -1.4847  -1.1523  -0.8686   6.7931
     8.0441   8.1399   8.3819   8.3863

          k = 0.0000 0.2887 0.0000 (  5891 PWs)   bands (ev):

   -35.1912 -34.8311 -29.8089 -22.4795 -18.3579 -17.3143 -16.8310 -16.4446
   -13.9792  -9.4907  -7.1340  -5.4338  -0.6151  -0.3406   0.6786   5.1446
     6.7731   7.2345   8.3313   9.4841

          k = 0.0000 0.3849 0.0000 (  5869 PWs)   bands (ev):

   -35.6709 -35.3905 -29.9206 -21.9543 -18.4278 -16.9974 -16.9737 -16.0083
   -10.6702 -10.2142  -6.5744  -5.2280   0.0690   0.9861   2.2589   3.5340
     5.3282   5.4176   6.5508   9.8141

          k = 0.0000 0.4811 0.0000 (  5815 PWs)   bands (ev):

   -35.9927 -35.8153 -29.8611 -21.2866 -19.4835 -17.3259 -15.9741 -15.1586
   -11.5218  -6.7363  -6.2150  -4.9367   0.8042   1.8948   2.1268   2.8431
     3.4673   4.1690   6.1052   8.0731

          k = 0.0000-0.5774 0.0000 (  5814 PWs)   bands (ev):

   -36.1054 -35.9704 -29.8191 -20.6158 -20.2888 -17.4487 -15.5905 -14.6974
   -12.0364  -6.1142  -4.7647  -4.4931   0.1542   1.3263   1.9265   2.6056
     3.7033   3.9260   5.9511   7.3608

          k = 0.0833 0.1443 0.0000 (  5871 PWs)   bands (ev):

   -34.5949 -34.1766 -29.0984 -22.9328 -19.9914 -18.3614 -17.2581 -15.9728
   -15.7276  -8.4865  -7.7690  -5.7023  -1.8039  -1.2644  -1.1622   7.3257
     8.0565   8.1530   8.1630   8.4605

          k = 0.0833 0.2406 0.0000 (  5868 PWs)   bands (ev):

   -35.2419 -34.3434 -29.7664 -22.6304 -18.7647 -17.1132 -16.8383 -16.3372
   -15.2081  -9.1688  -7.3070  -5.4561  -1.0055  -0.8282   0.2788   5.9422
     6.9453   7.2998   9.0410   9.0558

          k = 0.0833 0.3368 0.0000 (  5851 PWs)   bands (ev):

   -35.9220 -34.6327 -30.0826 -22.1795 -17.8809 -17.3517 -16.9312 -16.3446
   -11.9321 -10.0719  -6.7043  -5.2582  -0.2249   0.1367   1.8931   4.2901
     5.7357   5.9278   7.3544  10.5650

          k = 0.0833 0.4330 0.0000 (  5827 PWs)   bands (ev):

   -36.4641 -34.9370 -30.1209 -21.5833 -18.9449 -17.3803 -16.1084 -15.4865
   -11.1181  -8.3318  -6.1694  -5.0314   0.4585   1.3678   2.7553   3.1689
     3.6963   4.7625   6.0545   8.4850

          k = 0.0833 0.5292 0.0000 (  5816 PWs)   bands (ev):

   -36.7605 -35.1238 -30.0768 -20.8556 -19.9259 -17.6191 -15.3750 -14.7309
   -11.9582  -5.9173  -5.0917  -4.7732   0.7474   1.0218   2.1615   2.3398
     3.1449   4.6716   5.5570   7.1686

          k = 0.1667 0.2887 0.0000 (  5853 PWs)   bands (ev):

   -36.0443 -34.2352 -30.2492 -22.2550 -17.5362 -17.3813 -17.0795 -16.4668
   -12.5312  -9.9286  -6.7205  -5.2095  -0.3314  -0.3285   1.8491   5.0375
     5.0537   6.1699   7.9618  10.1066

          k = 0.1667 0.3849 0.0000 (  5823 PWs)   bands (ev):

   -36.7482 -34.1799 -30.5624 -21.7340 -18.4003 -17.7034 -15.9582 -15.6763
   -10.8552  -9.3805  -6.0297  -4.9955   0.2427   0.6032   3.1677   3.2937
     3.8981   5.1695   6.2792   8.2609

          k = 0.1667 0.4811 0.0000 (  5806 PWs)   bands (ev):

   -37.2144 -34.1858 -30.6888 -21.0732 -19.3552 -18.0638 -14.9565 -14.7542
   -11.7986  -6.1118  -5.5021  -4.7793   0.6162   1.5808   1.8083   2.3888
     3.1121   5.1335   5.2766   6.3706

          k = 0.1667 0.5774 0.0000 (  5806 PWs)   bands (ev):

   -37.3765 -34.1987 -30.7142 -20.3778 -20.1610 -18.1831 -14.5665 -14.2444
   -12.3302  -5.3434  -4.6347  -4.0027  -0.0072   0.6553   2.2470   2.3315
     2.4507   4.7239   5.5941   5.7495

          k = 0.2500 0.4330 0.0000 (  5808 PWs)   bands (ev):

   -37.3696 -33.6892 -31.0923 -21.1487 -18.8676 -18.5204 -14.8838 -14.6101
   -11.7150  -6.5854  -5.2893  -4.7660   0.4487   1.2045   2.3633   2.4332
     3.1545   5.1234   5.4977   5.7526

          k = 0.2500 0.5292 0.0000 (  5811 PWs)   bands (ev):

   -37.6979 -33.3152 -31.4870 -20.4359 -19.6163 -18.8724 -14.1159 -13.7556
   -12.5406  -4.8253  -4.5872  -3.8539   0.0716   0.3228   1.8084   2.4784
     2.5589   4.2049   4.5104   6.1350

          k = 0.3333 0.5774 0.0000 (  5808 PWs)   bands (ev):

   -37.8637 -32.3918 -32.3918 -19.7250 -19.7250 -19.6321 -13.3202 -13.3202
   -13.3188  -4.5213  -4.5213  -1.6782  -1.6782  -0.1610   2.0495   2.0495
     3.2670   3.2670   3.8990   6.4727

     the Fermi energy is     3.4964 ev

!    total energy              =     -35.18964322 Ry
     estimated scf accuracy    <          5.4E-09 Ry
     smearing contrib. (-TS)   =       0.00176717 Ry
     internal energy E=F+TS    =     -35.19141039 Ry

     The total energy is F=E-TS. E is the sum of the following terms:
     one-electron contribution =   -2294.20824529 Ry
     hartree contribution      =    1159.46836035 Ry
     xc contribution           =     -49.26534571 Ry
     ewald contribution        =    1148.81382024 Ry

     convergence has been achieved in  32 iterations

     negative rho (up, down):  7.680E-04 0.000E+00

     Forces acting on atoms (cartesian axes, Ry/au):

     atom    1 type  1   force =     0.00000000    0.00000000  -21.71351238
     atom    2 type  1   force =     0.00000000    0.00000000  -21.71351238
     atom    3 type  1   force =     0.00000000    0.00000000    3.02811812
     atom    4 type  1   force =     0.00000000   -0.00000000    3.02811812
     atom    5 type  1   force =     0.00000000    0.00000000   -3.02817268
     atom    6 type  1   force =     0.00000000    0.00000000   -3.02817268
     atom    7 type  1   force =     0.00000000    0.00000000   21.71356694
     atom    8 type  1   force =     0.00000000    0.00000000   21.71356694

     Total force =    43.847347     Total SCF correction =     0.000323


     Computing stress (Cartesian axis) and pressure


     negative rho (up, down):  7.680E-04 0.000E+00
          total   stress  (Ry/bohr**3)                   (kbar)     P=    12999.07
   0.02230905   0.00000000   0.00000000         3281.78        0.00        0.00
   0.00000000   0.02230905  -0.00000000            0.00     3281.78       -0.00
  -0.00000000   0.00000000   0.22047956           -0.00        0.00    32433.66


     Writing all to output data dir /home/rfa/Skripsi/DFT/dft-graphene/tmp/gr-aa-4L.save/ :
     XML data file, charge density, pseudopotentials, collected wavefunctions

     init_run     :      1.35s CPU      1.24s WALL (       1 calls)
     electrons    :    135.57s CPU     77.52s WALL (       1 calls)
     forces       :      0.50s CPU      0.28s WALL (       1 calls)
     stress       :      1.94s CPU      1.09s WALL (       1 calls)

     Called by init_run:
     wfcinit      :      1.04s CPU      0.71s WALL (       1 calls)
     potinit      :      0.02s CPU      0.03s WALL (       1 calls)
     hinit0       :      0.20s CPU      0.41s WALL (       1 calls)

     Called by electrons:
     c_bands      :    121.22s CPU     69.03s WALL (      32 calls)
     sum_band     :     12.80s CPU      7.10s WALL (      32 calls)
     v_of_rho     :      0.52s CPU      0.56s WALL (      33 calls)
     newd         :      0.58s CPU      0.50s WALL (      33 calls)
     mix_rho      :      0.37s CPU      0.27s WALL (      32 calls)

     Called by c_bands:
     init_us_2    :      3.42s CPU      1.82s WALL (    1273 calls)
     cegterg      :    115.84s CPU     66.00s WALL (     613 calls)

     Called by *egterg:
     cdiaghg      :      9.17s CPU      4.95s WALL (    4000 calls)
     h_psi        :     74.23s CPU     43.76s WALL (    4019 calls)
     s_psi        :      7.17s CPU      3.85s WALL (    4019 calls)
     g_psi        :      1.03s CPU      0.55s WALL (    3387 calls)

     Called by h_psi:
     h_psi:calbec :      9.78s CPU      5.71s WALL (    4019 calls)
     vloc_psi     :     56.19s CPU     33.56s WALL (    4019 calls)
     add_vuspsi   :      7.36s CPU      3.98s WALL (    4019 calls)

     General routines
     calbec       :     12.60s CPU      7.22s WALL (    4950 calls)
     fft          :      0.37s CPU      0.60s WALL (     388 calls)
     ffts         :      0.02s CPU      0.01s WALL (      32 calls)
     fftw         :     54.39s CPU     32.54s WALL (  103330 calls)

     Parallel routines

     PWSCF        :   2m19.53s CPU   1m20.74s WALL


   This run was terminated on:  14:47:14  16Apr2025            

=------------------------------------------------------------------------------=
   JOB DONE.
=------------------------------------------------------------------------------=
