
     Program PWSCF v.7.4.1 starts on 16Apr2025 at 14:47:16 

     This program is part of the open-source Quantum ESPRESSO suite
     for quantum simulation of materials; please cite
         "P. Giannozzi et al., J. Phys.:Condens. Matter 21 395502 (2009);
         "P. Giannozzi et al., J. Phys.:Condens. Matter 29 465901 (2017);
         "P. Giannozzi et al., J. Chem. Phys. 152 154105 (2020);
          URL http://www.quantum-espresso.org", 
     in publications or presentations arising from this work. More details at
     http://www.quantum-espresso.org/quote

     Parallel version (MPI), running on     7 processors

     MPI processes distributed on     1 nodes
     13253 MiB available memory on the printing compute node when the environment starts

     Waiting for input...
     Reading input from standard input

     Current dimensions of program PWSCF are:
     Max number of different atomic species (ntypx) = 10
     Max number of k-points (npk) =  40000
     Max angular momentum in pseudopotentials (lmaxx) =  4

     R & G space division:  proc/nbgrp/npool/nimage =       7
     Subspace diagonalization in iterative solution of the eigenvalue problem:
     a serial algorithm will be used


     Parallelization info
     --------------------
     sticks:   dense  smooth     PW     G-vecs:    dense   smooth      PW
     Min          67      67     21                 7315     7315    1227
     Max          68      68     22                 7338     7338    1238
     Sum         475     475    151                51311    51311    8639

     Using Slab Decomposition



     bravais-lattice index     =            4
     lattice parameter (alat)  =       4.6561  a.u.
     unit-cell volume          =     532.1899 (a.u.)^3
     number of atoms/cell      =            8
     number of atomic types    =            1
     number of electrons       =        32.00
     number of Kohn-Sham states=           20
     kinetic-energy cutoff     =      80.0000  Ry
     charge density cutoff     =     320.0000  Ry
     scf convergence threshold =      1.0E-08
     mixing beta               =       0.7000
     number of iterations used =            8  plain     mixing
     Exchange-correlation= PBE
                           (   1   4   3   4   0   0   0)

     celldm(1)=   4.656107  celldm(2)=   0.000000  celldm(3)=   6.087896
     celldm(4)=   0.000000  celldm(5)=   0.000000  celldm(6)=   0.000000

     crystal axes: (cart. coord. in units of alat)
               a(1) = (   1.000000   0.000000   0.000000 )  
               a(2) = (  -0.500000   0.866025   0.000000 )  
               a(3) = (   0.000000   0.000000   6.087896 )  

     reciprocal axes: (cart. coord. in units 2 pi/alat)
               b(1) = (  1.000000  0.577350 -0.000000 )  
               b(2) = (  0.000000  1.154701  0.000000 )  
               b(3) = (  0.000000 -0.000000  0.164260 )  


     PseudoPot. # 1 for C  read from file:
     /home/rfa/Skripsi/DFT/dft-graphene/pseudo/C.pbe-n-rrkjus_psl.0.1.UPF
     MD5 check sum: 96a6a315177d77e6c95bf6fd3870f9e3
     Pseudo is Ultrasoft + core correction, Zval =  4.0
     Generated using &quot;atomic&quot; code by A. Dal Corso  v.6.3MaX
     Using radial grid of 1073 points,  4 beta functions with: 
                l(1) =   0
                l(2) =   0
                l(3) =   1
                l(4) =   1
     Q(r) pseudized with 0 coefficients 


     atomic species   valence    mass     pseudopotential
     C                 4.00    12.01070     C ( 1.00)

     12 Sym. Ops. (no inversion) found



   Cartesian axes

     site n.     atom                  positions (alat units)
         1        C      tau(   1) = (   0.0000000   0.5773503   3.0439478  )
         2        C      tau(   2) = (   0.5000000   0.2886751   3.0439478  )
         3        C      tau(   3) = (   0.0000000   0.5773503   3.2468777  )
         4        C      tau(   4) = (   0.5000000   0.2886751   3.2468777  )
         5        C      tau(   5) = (   0.0000000   0.5773503   3.4498075  )
         6        C      tau(   6) = (   0.5000000   0.2886751   3.4498075  )
         7        C      tau(   7) = (   0.0000000   0.5773503   3.6527374  )
         8        C      tau(   8) = (   0.5000000   0.2886751   3.6527374  )

     number of k points=    19  Marzari-Vanderbilt smearing, width (Ry)=  0.0200
                       cart. coord. in units 2pi/alat
        k(    1) = (   0.0000000   0.0000000   0.0000000), wk =   0.0138889
        k(    2) = (   0.0000000   0.0962250   0.0000000), wk =   0.0833333
        k(    3) = (   0.0000000   0.1924501   0.0000000), wk =   0.0833333
        k(    4) = (   0.0000000   0.2886751   0.0000000), wk =   0.0833333
        k(    5) = (   0.0000000   0.3849002   0.0000000), wk =   0.0833333
        k(    6) = (   0.0000000   0.4811252   0.0000000), wk =   0.0833333
        k(    7) = (   0.0000000  -0.5773503   0.0000000), wk =   0.0416667
        k(    8) = (   0.0833333   0.1443376   0.0000000), wk =   0.0833333
        k(    9) = (   0.0833333   0.2405626   0.0000000), wk =   0.1666667
        k(   10) = (   0.0833333   0.3367877   0.0000000), wk =   0.1666667
        k(   11) = (   0.0833333   0.4330127   0.0000000), wk =   0.1666667
        k(   12) = (   0.0833333   0.5292377   0.0000000), wk =   0.1666667
        k(   13) = (   0.1666667   0.2886751   0.0000000), wk =   0.0833333
        k(   14) = (   0.1666667   0.3849002   0.0000000), wk =   0.1666667
        k(   15) = (   0.1666667   0.4811252   0.0000000), wk =   0.1666667
        k(   16) = (   0.1666667   0.5773503   0.0000000), wk =   0.0833333
        k(   17) = (   0.2500000   0.4330127   0.0000000), wk =   0.0833333
        k(   18) = (   0.2500000   0.5292377   0.0000000), wk =   0.1666667
        k(   19) = (   0.3333333   0.5773503   0.0000000), wk =   0.0277778

     Dense  grid:    51311 G-vectors     FFT dimensions: (  27,  27, 162)

     Estimated max dynamical RAM per process >      18.49 MB

     Estimated total dynamical RAM >     129.46 MB

     Check: negative core charge=   -0.000002

     Initial potential from superposition of free atoms

     starting charge      31.9997, renormalised to      32.0000

     negative rho (up, down):  8.675E-05 0.000E+00
     Starting wfcs are   32 randomized atomic wfcs

     total cpu time spent up to now is        1.1 secs

     per-process dynamical memory:    18.0 Mb

     Self-consistent Calculation

     iteration #  1     ecut=    80.00 Ry     beta= 0.70
     Davidson diagonalization with overlap
     ethr =  1.00E-02,  avg # of iterations = 12.7

     negative rho (up, down):  1.247E-03 0.000E+00

     total cpu time spent up to now is        7.0 secs

     total energy              =     -16.68141045 Ry
     estimated scf accuracy    <      50.12191876 Ry

     iteration #  2     ecut=    80.00 Ry     beta= 0.70
     Davidson diagonalization with overlap
     c_bands:  3 eigenvalues not converged
     c_bands:  4 eigenvalues not converged
     c_bands:  3 eigenvalues not converged
     c_bands:  2 eigenvalues not converged
     c_bands:  2 eigenvalues not converged
     c_bands:  2 eigenvalues not converged
     c_bands:  2 eigenvalues not converged
     c_bands:  3 eigenvalues not converged
     c_bands:  2 eigenvalues not converged
     c_bands:  3 eigenvalues not converged
     c_bands:  2 eigenvalues not converged
     c_bands:  3 eigenvalues not converged
     c_bands:  1 eigenvalues not converged
     c_bands:  1 eigenvalues not converged
     c_bands:  5 eigenvalues not converged
     ethr =  1.00E-02,  avg # of iterations = 19.9

     total cpu time spent up to now is       15.8 secs

     total energy              =      30.15805665 Ry
     estimated scf accuracy    <     266.66634524 Ry

     iteration #  3     ecut=    80.00 Ry     beta= 0.70
     Davidson diagonalization with overlap
     c_bands:  1 eigenvalues not converged
     c_bands:  1 eigenvalues not converged
     c_bands:  2 eigenvalues not converged
     ethr =  1.00E-02,  avg # of iterations = 16.7

     total cpu time spent up to now is       24.5 secs

     total energy              =     -37.27481074 Ry
     estimated scf accuracy    <       7.23111489 Ry

     iteration #  4     ecut=    80.00 Ry     beta= 0.70
     Davidson diagonalization with overlap
     ethr =  1.00E-02,  avg # of iterations =  2.7

     total cpu time spent up to now is       26.3 secs

     total energy              =     -35.97811194 Ry
     estimated scf accuracy    <       4.29011859 Ry

     iteration #  5     ecut=    80.00 Ry     beta= 0.70
     Davidson diagonalization with overlap
     ethr =  1.00E-02,  avg # of iterations =  1.1

     total cpu time spent up to now is       28.1 secs

     total energy              =     -35.83305559 Ry
     estimated scf accuracy    <       2.83971149 Ry

     iteration #  6     ecut=    80.00 Ry     beta= 0.70
     Davidson diagonalization with overlap
     ethr =  8.87E-03,  avg # of iterations =  1.1

     total cpu time spent up to now is       29.7 secs

     total energy              =     -35.75296226 Ry
     estimated scf accuracy    <       1.90409644 Ry

     iteration #  7     ecut=    80.00 Ry     beta= 0.70
     Davidson diagonalization with overlap
     ethr =  5.95E-03,  avg # of iterations =  1.2

     total cpu time spent up to now is       31.5 secs

     total energy              =     -35.56483168 Ry
     estimated scf accuracy    <       1.53601982 Ry

     iteration #  8     ecut=    80.00 Ry     beta= 0.70
     Davidson diagonalization with overlap
     ethr =  4.80E-03,  avg # of iterations =  2.2

     total cpu time spent up to now is       33.4 secs

     total energy              =     -34.88528158 Ry
     estimated scf accuracy    <       1.25419248 Ry

     iteration #  9     ecut=    80.00 Ry     beta= 0.70
     Davidson diagonalization with overlap
     ethr =  3.92E-03,  avg # of iterations =  6.0

     total cpu time spent up to now is       35.7 secs

     total energy              =     -35.28180491 Ry
     estimated scf accuracy    <       0.13613931 Ry

     iteration # 10     ecut=    80.00 Ry     beta= 0.70
     Davidson diagonalization with overlap
     c_bands:  1 eigenvalues not converged
     ethr =  4.25E-04,  avg # of iterations = 12.1

     total cpu time spent up to now is       39.9 secs

     total energy              =     -35.15169857 Ry
     estimated scf accuracy    <       0.36552278 Ry

     iteration # 11     ecut=    80.00 Ry     beta= 0.70
     Davidson diagonalization with overlap
     ethr =  4.25E-04,  avg # of iterations =  5.4

     negative rho (up, down):  9.893E-04 0.000E+00

     total cpu time spent up to now is       43.0 secs

     total energy              =     -35.22971546 Ry
     estimated scf accuracy    <       0.07713508 Ry

     iteration # 12     ecut=    80.00 Ry     beta= 0.70
     Davidson diagonalization with overlap
     c_bands:  1 eigenvalues not converged
     c_bands:  1 eigenvalues not converged
     c_bands:  2 eigenvalues not converged
     c_bands:  2 eigenvalues not converged
     c_bands:  2 eigenvalues not converged
     c_bands:  2 eigenvalues not converged
     ethr =  2.41E-04,  avg # of iterations = 11.2

     negative rho (up, down):  1.445E-02 0.000E+00

     total cpu time spent up to now is       46.7 secs

     total energy              =     -35.28037405 Ry
     estimated scf accuracy    <       0.22820257 Ry

     iteration # 13     ecut=    80.00 Ry     beta= 0.70
     Davidson diagonalization with overlap
     ethr =  2.41E-04,  avg # of iterations =  3.5

     negative rho (up, down):  2.262E-05 0.000E+00

     total cpu time spent up to now is       48.8 secs

     total energy              =     -35.17197750 Ry
     estimated scf accuracy    <       1.87155708 Ry

     iteration # 14     ecut=    80.00 Ry     beta= 0.70
     Davidson diagonalization with overlap
     ethr =  2.41E-04,  avg # of iterations =  1.1

     negative rho (up, down):  4.290E-07 0.000E+00

     total cpu time spent up to now is       50.5 secs

     total energy              =     -35.18915256 Ry
     estimated scf accuracy    <       0.19346685 Ry

     iteration # 15     ecut=    80.00 Ry     beta= 0.70
     Davidson diagonalization with overlap
     c_bands:  1 eigenvalues not converged
     ethr =  2.41E-04,  avg # of iterations =  7.7

     negative rho (up, down):  1.735E-02 0.000E+00

     total cpu time spent up to now is       53.5 secs

     total energy              =     -35.21779823 Ry
     estimated scf accuracy    <       0.11336905 Ry

     iteration # 16     ecut=    80.00 Ry     beta= 0.70
     Davidson diagonalization with overlap
     ethr =  2.41E-04,  avg # of iterations =  2.6

     negative rho (up, down):  7.153E-02 0.000E+00

     total cpu time spent up to now is       55.4 secs

     total energy              =     -35.21578181 Ry
     estimated scf accuracy    <       0.08050107 Ry

     iteration # 17     ecut=    80.00 Ry     beta= 0.70
     Davidson diagonalization with overlap
     ethr =  2.41E-04,  avg # of iterations =  4.4

     negative rho (up, down):  9.784E-02 0.000E+00

     total cpu time spent up to now is       58.7 secs

     total energy              =     -35.34432129 Ry
     estimated scf accuracy    <       1.25379540 Ry

     iteration # 18     ecut=    80.00 Ry     beta= 0.70
     Davidson diagonalization with overlap
     ethr =  2.41E-04,  avg # of iterations =  1.6

     total cpu time spent up to now is       60.7 secs

     total energy              =     -34.00855125 Ry
     estimated scf accuracy    <       3.22841291 Ry

     iteration # 19     ecut=    80.00 Ry     beta= 0.70
     Davidson diagonalization with overlap
     c_bands:  3 eigenvalues not converged
     c_bands:  3 eigenvalues not converged
     c_bands:  1 eigenvalues not converged
     c_bands:  1 eigenvalues not converged
     c_bands:  2 eigenvalues not converged
     ethr =  2.41E-04,  avg # of iterations = 10.6

     total cpu time spent up to now is       64.9 secs

     total energy              =     -35.19487057 Ry
     estimated scf accuracy    <       0.17708987 Ry

     iteration # 20     ecut=    80.00 Ry     beta= 0.70
     Davidson diagonalization with overlap
     c_bands:  1 eigenvalues not converged
     ethr =  2.41E-04,  avg # of iterations =  6.2

     negative rho (up, down):  9.941E-04 0.000E+00

     total cpu time spent up to now is       67.8 secs

     total energy              =     -35.18373911 Ry
     estimated scf accuracy    <       0.03452820 Ry

     iteration # 21     ecut=    80.00 Ry     beta= 0.70
     Davidson diagonalization with overlap
     ethr =  1.08E-04,  avg # of iterations =  6.5

     negative rho (up, down):  4.368E-03 0.000E+00

     total cpu time spent up to now is       70.5 secs

     total energy              =     -35.19012419 Ry
     estimated scf accuracy    <       0.00254474 Ry

     iteration # 22     ecut=    80.00 Ry     beta= 0.70
     Davidson diagonalization with overlap
     ethr =  7.95E-06,  avg # of iterations =  9.5

     negative rho (up, down):  1.211E-03 0.000E+00

     total cpu time spent up to now is       74.8 secs

     total energy              =     -35.19099930 Ry
     estimated scf accuracy    <       0.00104086 Ry

     iteration # 23     ecut=    80.00 Ry     beta= 0.70
     Davidson diagonalization with overlap
     c_bands:  2 eigenvalues not converged
     c_bands:  2 eigenvalues not converged
     ethr =  3.25E-06,  avg # of iterations =  8.7

     negative rho (up, down):  1.792E-04 0.000E+00

     total cpu time spent up to now is       78.6 secs

     total energy              =     -35.19126532 Ry
     estimated scf accuracy    <       0.00058071 Ry

     iteration # 24     ecut=    80.00 Ry     beta= 0.70
     Davidson diagonalization with overlap
     c_bands:  1 eigenvalues not converged
     ethr =  1.81E-06,  avg # of iterations =  5.4

     negative rho (up, down):  3.000E-05 0.000E+00

     total cpu time spent up to now is       81.3 secs

     total energy              =     -35.19153579 Ry
     estimated scf accuracy    <       0.00031962 Ry

     iteration # 25     ecut=    80.00 Ry     beta= 0.70
     Davidson diagonalization with overlap
     c_bands:  1 eigenvalues not converged
     ethr =  9.99E-07,  avg # of iterations =  6.9

     negative rho (up, down):  3.391E-04 0.000E+00

     total cpu time spent up to now is       84.0 secs

     total energy              =     -35.19132236 Ry
     estimated scf accuracy    <       0.00084447 Ry

     iteration # 26     ecut=    80.00 Ry     beta= 0.70
     Davidson diagonalization with overlap
     ethr =  9.99E-07,  avg # of iterations =  4.9

     negative rho (up, down):  2.283E-05 0.000E+00

     total cpu time spent up to now is       86.3 secs

     total energy              =     -35.19150053 Ry
     estimated scf accuracy    <       0.00020261 Ry

     iteration # 27     ecut=    80.00 Ry     beta= 0.70
     Davidson diagonalization with overlap
     ethr =  6.33E-07,  avg # of iterations =  4.6

     negative rho (up, down):  1.292E-03 0.000E+00

     total cpu time spent up to now is       88.6 secs

     total energy              =     -35.19134570 Ry
     estimated scf accuracy    <       0.00056107 Ry

     iteration # 28     ecut=    80.00 Ry     beta= 0.70
     Davidson diagonalization with overlap
     ethr =  6.33E-07,  avg # of iterations =  5.6

     negative rho (up, down):  1.236E-03 0.000E+00

     total cpu time spent up to now is       91.6 secs

     total energy              =     -35.19142029 Ry
     estimated scf accuracy    <       0.00014681 Ry

     iteration # 29     ecut=    80.00 Ry     beta= 0.70
     Davidson diagonalization with overlap
     ethr =  4.59E-07,  avg # of iterations =  2.4

     negative rho (up, down):  1.316E-03 0.000E+00

     total cpu time spent up to now is       93.6 secs

     total energy              =     -35.19142689 Ry
     estimated scf accuracy    <       0.00001979 Ry

     iteration # 30     ecut=    80.00 Ry     beta= 0.70
     Davidson diagonalization with overlap
     ethr =  6.19E-08,  avg # of iterations =  6.0

     negative rho (up, down):  1.320E-03 0.000E+00

     total cpu time spent up to now is       96.9 secs

     total energy              =     -35.19144837 Ry
     estimated scf accuracy    <       0.00000266 Ry

     iteration # 31     ecut=    80.00 Ry     beta= 0.70
     Davidson diagonalization with overlap
     ethr =  8.31E-09,  avg # of iterations =  6.5

     negative rho (up, down):  1.319E-03 0.000E+00

     total cpu time spent up to now is      100.7 secs

     total energy              =     -35.19144935 Ry
     estimated scf accuracy    <       0.00000333 Ry

     iteration # 32     ecut=    80.00 Ry     beta= 0.70
     Davidson diagonalization with overlap
     ethr =  8.31E-09,  avg # of iterations =  4.4

     negative rho (up, down):  1.324E-03 0.000E+00

     total cpu time spent up to now is      103.2 secs

     total energy              =     -35.19145006 Ry
     estimated scf accuracy    <       0.00000001 Ry

     iteration # 33     ecut=    80.00 Ry     beta= 0.70
     Davidson diagonalization with overlap
     c_bands:  3 eigenvalues not converged
     c_bands:  5 eigenvalues not converged
     c_bands:  1 eigenvalues not converged
     c_bands:  1 eigenvalues not converged
     ethr =  4.52E-11,  avg # of iterations = 22.1

     negative rho (up, down):  1.325E-03 0.000E+00

     total cpu time spent up to now is      116.3 secs

     total energy              =     -35.19145036 Ry
     estimated scf accuracy    <       0.00000014 Ry

     iteration # 34     ecut=    80.00 Ry     beta= 0.70
     Davidson diagonalization with overlap
     ethr =  4.52E-11,  avg # of iterations =  5.3

     negative rho (up, down):  1.326E-03 0.000E+00

     total cpu time spent up to now is      119.3 secs

     total energy              =     -35.19145036 Ry
     estimated scf accuracy    <       0.00000001 Ry

     iteration # 35     ecut=    80.00 Ry     beta= 0.70
     Davidson diagonalization with overlap
     ethr =  4.52E-11,  avg # of iterations =  5.1

     negative rho (up, down):  1.325E-03 0.000E+00

     total cpu time spent up to now is      122.1 secs

     End of self-consistent calculation

          k = 0.0000 0.0000 0.0000 (  6489 PWs)   bands (ev):

   -34.0358 -34.0358 -27.8743 -23.1623 -21.0734 -21.0734 -17.8080 -15.1402
   -15.1402  -8.1195  -7.9329  -6.0483  -2.4390  -2.4390  -1.6100   7.3587
     7.4033   8.7729   9.0650   9.0651

          k = 0.0000 0.0962 0.0000 (  6493 PWs)   bands (ev):

   -34.2114 -34.1035 -28.4167 -23.0862 -20.7025 -19.9971 -17.6548 -15.4523
   -15.3419  -8.1230  -8.0050  -5.9094  -2.2068  -2.0132  -1.4940   7.5832
     7.6313   8.2674   8.7613   8.9906

          k = 0.0000 0.1925 0.0000 (  6481 PWs)   bands (ev):

   -34.6549 -34.3563 -29.2985 -22.8586 -19.7061 -17.7967 -16.9013 -16.2596
   -15.8451  -8.6671  -7.6618  -5.6474  -1.4870  -1.1542  -0.8710   6.7911
     8.0423   8.1365   8.2564   8.3142

          k = 0.0000 0.2887 0.0000 (  6429 PWs)   bands (ev):

   -35.1931 -34.8329 -29.8105 -22.4810 -18.3597 -17.3161 -16.8331 -16.4465
   -13.9809  -9.4934  -7.1355  -5.4360  -0.6169  -0.3429   0.6763   5.1426
     6.7713   7.2327   8.3296   9.4145

          k = 0.0000 0.3849 0.0000 (  6414 PWs)   bands (ev):

   -35.6727 -35.3923 -29.9223 -21.9560 -18.4295 -16.9993 -16.9756 -16.0105
   -10.6724 -10.2161  -6.5762  -5.2299   0.0672   0.9839   2.2565   3.5321
     5.3263   5.4158   6.5491   9.8122

          k = 0.0000 0.4811 0.0000 (  6418 PWs)   bands (ev):

   -35.9947 -35.8171 -29.8629 -21.2883 -19.4852 -17.3278 -15.9759 -15.1609
   -11.5242  -6.7383  -6.2171  -4.9385   0.8024   1.8928   2.1246   2.8413
     3.4648   4.1668   6.1034   8.0712

          k = 0.0000-0.5774 0.0000 (  6386 PWs)   bands (ev):

   -36.1073 -35.9722 -29.8208 -20.6174 -20.2906 -17.4505 -15.5924 -14.6997
   -12.0386  -6.1161  -4.7664  -4.4950   0.1522   1.3246   1.9247   2.6039
     3.7006   3.9236   5.9494   7.3589

          k = 0.0833 0.1443 0.0000 (  6473 PWs)   bands (ev):

   -34.5968 -34.1785 -29.1000 -22.9343 -19.9934 -18.3634 -17.2599 -15.9748
   -15.7295  -8.4893  -7.7705  -5.7046  -1.8061  -1.2663  -1.1646   7.3238
     8.0310   8.0561   8.0835   8.4587

          k = 0.0833 0.2406 0.0000 (  6444 PWs)   bands (ev):

   -35.2438 -34.3453 -29.7681 -22.6320 -18.7666 -17.1153 -16.8402 -16.3391
   -15.2098  -9.1715  -7.3085  -5.4584  -1.0078  -0.8300   0.2765   5.9402
     6.9436   7.2982   8.9279   8.9733

          k = 0.0833 0.3368 0.0000 (  6420 PWs)   bands (ev):

   -35.9239 -34.6345 -30.0843 -22.1811 -17.8827 -17.3536 -16.9330 -16.3467
   -11.9338 -10.0744  -6.7059  -5.2603  -0.2267   0.1344   1.8907   4.2882
     5.7340   5.9260   7.3526  10.2636

          k = 0.0833 0.4330 0.0000 (  6423 PWs)   bands (ev):

   -36.4660 -34.9388 -30.1227 -21.5849 -18.9467 -17.3822 -16.1104 -15.4887
   -11.1206  -8.3336  -6.1713  -5.0334   0.4567   1.3655   2.7534   3.1666
     3.6944   4.7605   6.0527   8.4832

          k = 0.0833 0.5292 0.0000 (  6418 PWs)   bands (ev):

   -36.7623 -35.1257 -30.0786 -20.8573 -19.9277 -17.6209 -15.3770 -14.7332
   -11.9606  -5.9195  -5.0936  -4.7750   0.7454   1.0200   2.1597   2.3377
     3.1427   4.6689   5.5552   7.1668

          k = 0.1667 0.2887 0.0000 (  6421 PWs)   bands (ev):

   -36.0461 -34.2371 -30.2509 -22.2566 -17.5380 -17.3832 -17.0813 -16.4689
   -12.5329  -9.9312  -6.7220  -5.2117  -0.3332  -0.3307   1.8468   5.0355
     5.0519   6.1681   7.9600  10.0434

          k = 0.1667 0.3849 0.0000 (  6439 PWs)   bands (ev):

   -36.7501 -34.1817 -30.5642 -21.7356 -18.4021 -17.7053 -15.9601 -15.6785
   -10.8577  -9.3823  -6.0313  -4.9978   0.2409   0.6010   3.1655   3.2919
     3.8961   5.1673   6.2774   8.2589

          k = 0.1667 0.4811 0.0000 (  6433 PWs)   bands (ev):

   -37.2163 -34.1877 -30.6906 -21.0749 -19.3570 -18.0656 -14.9586 -14.7563
   -11.8011  -6.1136  -5.5041  -4.7812   0.6145   1.5786   1.8063   2.3870
     3.1101   5.1317   5.2739   6.3686

          k = 0.1667 0.5774 0.0000 (  6408 PWs)   bands (ev):

   -37.3783 -34.2005 -30.7159 -20.3795 -20.1627 -18.1849 -14.5685 -14.2464
   -12.3325  -5.3456  -4.6364  -4.0046  -0.0092   0.6535   2.2452   2.3290
     2.4488   4.7221   5.5914   5.7476

          k = 0.2500 0.4330 0.0000 (  6437 PWs)   bands (ev):

   -37.3715 -33.6911 -31.0941 -21.1504 -18.8694 -18.5222 -14.8860 -14.6120
   -11.7175  -6.5873  -5.2909  -4.7683   0.4470   1.2022   2.3613   2.4314
     3.1526   5.1216   5.4951   5.7507

          k = 0.2500 0.5292 0.0000 (  6421 PWs)   bands (ev):

   -37.6997 -33.3170 -31.4888 -20.4376 -19.6180 -18.8742 -14.1181 -13.7574
   -12.5430  -4.8272  -4.5891  -3.8557   0.0698   0.3210   1.8061   2.4765
     2.5572   4.2031   4.5085   6.1323

          k = 0.3333 0.5774 0.0000 (  6408 PWs)   bands (ev):

   -37.8656 -32.3937 -32.3937 -19.7268 -19.7268 -19.6339 -13.3224 -13.3224
   -13.3208  -4.5232  -4.5232  -1.6801  -1.6801  -0.1627   2.0472   2.0472
     3.2652   3.2652   3.8971   6.4698

     the Fermi energy is     3.4943 ev

!    total energy              =     -35.19145037 Ry
     estimated scf accuracy    <          5.7E-09 Ry
     smearing contrib. (-TS)   =       0.00176717 Ry
     internal energy E=F+TS    =     -35.19321753 Ry

     The total energy is F=E-TS. E is the sum of the following terms:
     one-electron contribution =   -2294.21286460 Ry
     hartree contribution      =    1159.47230113 Ry
     xc contribution           =     -49.26647431 Ry
     ewald contribution        =    1148.81382024 Ry

     convergence has been achieved in  35 iterations

     negative rho (up, down):  1.325E-03 0.000E+00

     Forces acting on atoms (cartesian axes, Ry/au):

     atom    1 type  1   force =    -0.00000000   -0.00000000  -21.71285208
     atom    2 type  1   force =     0.00000000    0.00000000  -21.71285208
     atom    3 type  1   force =     0.00000000    0.00000000    3.02924619
     atom    4 type  1   force =     0.00000000   -0.00000000    3.02924619
     atom    5 type  1   force =     0.00000000    0.00000000   -3.02899478
     atom    6 type  1   force =     0.00000000    0.00000000   -3.02899478
     atom    7 type  1   force =     0.00000000    0.00000000   21.71260067
     atom    8 type  1   force =    -0.00000000   -0.00000000   21.71260067

     Total force =    43.846006     Total SCF correction =     0.000287


     Computing stress (Cartesian axis) and pressure


     negative rho (up, down):  1.325E-03 0.000E+00
          total   stress  (Ry/bohr**3)                   (kbar)     P=    12999.71
   0.02232498   0.00000000   0.00000000         3284.12        0.00        0.00
   0.00000000   0.02232498  -0.00000000            0.00     3284.12       -0.00
  -0.00000000   0.00000000   0.22046078           -0.00        0.00    32430.90


     Writing all to output data dir /home/rfa/Skripsi/DFT/dft-graphene/tmp/gr-aa-4L.save/ :
     XML data file, charge density, pseudopotentials, collected wavefunctions

     init_run     :      1.16s CPU      1.03s WALL (       1 calls)
     electrons    :    200.78s CPU    121.04s WALL (       1 calls)
     forces       :      0.58s CPU      0.35s WALL (       1 calls)
     stress       :      2.28s CPU      1.26s WALL (       1 calls)

     Called by init_run:
     wfcinit      :      0.95s CPU      0.69s WALL (       1 calls)
     potinit      :      0.01s CPU      0.02s WALL (       1 calls)
     hinit0       :      0.15s CPU      0.26s WALL (       1 calls)

     Called by electrons:
     c_bands      :    179.39s CPU    107.96s WALL (      35 calls)
     sum_band     :     19.30s CPU     11.14s WALL (      35 calls)
     v_of_rho     :      0.76s CPU      0.79s WALL (      36 calls)
     newd         :      0.77s CPU      0.68s WALL (      36 calls)
     mix_rho      :      0.48s CPU      0.40s WALL (      35 calls)

     Called by c_bands:
     init_us_2    :      4.38s CPU      2.33s WALL (    1387 calls)
     cegterg      :    172.72s CPU    104.22s WALL (     677 calls)

     Called by *egterg:
     cdiaghg      :     13.02s CPU      6.95s WALL (    5119 calls)
     h_psi        :    111.24s CPU     71.30s WALL (    5138 calls)
     s_psi        :     11.66s CPU      6.30s WALL (    5138 calls)
     g_psi        :      1.46s CPU      0.76s WALL (    4442 calls)

     Called by h_psi:
     h_psi:calbec :     12.91s CPU      7.87s WALL (    5138 calls)
     vloc_psi     :     85.24s CPU     56.30s WALL (    5138 calls)
     add_vuspsi   :     11.86s CPU      6.45s WALL (    5138 calls)

     General routines
     calbec       :     16.21s CPU      9.86s WALL (    6126 calls)
     fft          :      0.46s CPU      0.60s WALL (     421 calls)
     ffts         :      0.04s CPU      0.02s WALL (      35 calls)
     fftw         :     88.55s CPU     57.70s WALL (  117432 calls)

     Parallel routines

     PWSCF        :   3m24.97s CPU   2m 4.36s WALL


   This run was terminated on:  14:49:20  16Apr2025            

=------------------------------------------------------------------------------=
   JOB DONE.
=------------------------------------------------------------------------------=
