
     Program PWSCF v.7.4.1 starts on 16Apr2025 at 14:40:43 

     This program is part of the open-source Quantum ESPRESSO suite
     for quantum simulation of materials; please cite
         "P. Giannozzi et al., J. Phys.:Condens. Matter 21 395502 (2009);
         "P. Giannozzi et al., J. Phys.:Condens. Matter 29 465901 (2017);
         "P. Giannozzi et al., J. Chem. Phys. 152 154105 (2020);
          URL http://www.quantum-espresso.org", 
     in publications or presentations arising from this work. More details at
     http://www.quantum-espresso.org/quote

     Parallel version (MPI), running on     7 processors

     MPI processes distributed on     1 nodes
     13586 MiB available memory on the printing compute node when the environment starts

     Waiting for input...
     Reading input from standard input

     Current dimensions of program PWSCF are:
     Max number of different atomic species (ntypx) = 10
     Max number of k-points (npk) =  40000
     Max angular momentum in pseudopotentials (lmaxx) =  4

     R & G space division:  proc/nbgrp/npool/nimage =       7
     Subspace diagonalization in iterative solution of the eigenvalue problem:
     a serial algorithm will be used


     Parallelization info
     --------------------
     sticks:   dense  smooth     PW     G-vecs:    dense   smooth      PW
     Min          43      43     13                 3639     3639     639
     Max          43      43     13                 3649     3649     655
     Sum         301     301     91                25507    25507    4493

     Using Slab Decomposition



     bravais-lattice index     =            4
     lattice parameter (alat)  =       4.6561  a.u.
     unit-cell volume          =     532.1899 (a.u.)^3
     number of atoms/cell      =            8
     number of atomic types    =            1
     number of electrons       =        32.00
     number of Kohn-Sham states=           20
     kinetic-energy cutoff     =      50.0000  Ry
     charge density cutoff     =     200.0000  Ry
     scf convergence threshold =      1.0E-08
     mixing beta               =       0.7000
     number of iterations used =            8  plain     mixing
     Exchange-correlation= PBE
                           (   1   4   3   4   0   0   0)

     celldm(1)=   4.656107  celldm(2)=   0.000000  celldm(3)=   6.087896
     celldm(4)=   0.000000  celldm(5)=   0.000000  celldm(6)=   0.000000

     crystal axes: (cart. coord. in units of alat)
               a(1) = (   1.000000   0.000000   0.000000 )  
               a(2) = (  -0.500000   0.866025   0.000000 )  
               a(3) = (   0.000000   0.000000   6.087896 )  

     reciprocal axes: (cart. coord. in units 2 pi/alat)
               b(1) = (  1.000000  0.577350 -0.000000 )  
               b(2) = (  0.000000  1.154701  0.000000 )  
               b(3) = (  0.000000 -0.000000  0.164260 )  


     PseudoPot. # 1 for C  read from file:
     /home/rfa/Skripsi/DFT/dft-graphene/pseudo/C.pbe-n-rrkjus_psl.0.1.UPF
     MD5 check sum: 96a6a315177d77e6c95bf6fd3870f9e3
     Pseudo is Ultrasoft + core correction, Zval =  4.0
     Generated using &quot;atomic&quot; code by A. Dal Corso  v.6.3MaX
     Using radial grid of 1073 points,  4 beta functions with: 
                l(1) =   0
                l(2) =   0
                l(3) =   1
                l(4) =   1
     Q(r) pseudized with 0 coefficients 


     atomic species   valence    mass     pseudopotential
     C                 4.00    12.01070     C ( 1.00)

     12 Sym. Ops. (no inversion) found



   Cartesian axes

     site n.     atom                  positions (alat units)
         1        C      tau(   1) = (   0.0000000   0.5773503   3.0439478  )
         2        C      tau(   2) = (   0.5000000   0.2886751   3.0439478  )
         3        C      tau(   3) = (   0.0000000   0.5773503   3.2468777  )
         4        C      tau(   4) = (   0.5000000   0.2886751   3.2468777  )
         5        C      tau(   5) = (   0.0000000   0.5773503   3.4498075  )
         6        C      tau(   6) = (   0.5000000   0.2886751   3.4498075  )
         7        C      tau(   7) = (   0.0000000   0.5773503   3.6527374  )
         8        C      tau(   8) = (   0.5000000   0.2886751   3.6527374  )

     number of k points=    19  Marzari-Vanderbilt smearing, width (Ry)=  0.0200
                       cart. coord. in units 2pi/alat
        k(    1) = (   0.0000000   0.0000000   0.0000000), wk =   0.0138889
        k(    2) = (   0.0000000   0.0962250   0.0000000), wk =   0.0833333
        k(    3) = (   0.0000000   0.1924501   0.0000000), wk =   0.0833333
        k(    4) = (   0.0000000   0.2886751   0.0000000), wk =   0.0833333
        k(    5) = (   0.0000000   0.3849002   0.0000000), wk =   0.0833333
        k(    6) = (   0.0000000   0.4811252   0.0000000), wk =   0.0833333
        k(    7) = (   0.0000000  -0.5773503   0.0000000), wk =   0.0416667
        k(    8) = (   0.0833333   0.1443376   0.0000000), wk =   0.0833333
        k(    9) = (   0.0833333   0.2405626   0.0000000), wk =   0.1666667
        k(   10) = (   0.0833333   0.3367877   0.0000000), wk =   0.1666667
        k(   11) = (   0.0833333   0.4330127   0.0000000), wk =   0.1666667
        k(   12) = (   0.0833333   0.5292377   0.0000000), wk =   0.1666667
        k(   13) = (   0.1666667   0.2886751   0.0000000), wk =   0.0833333
        k(   14) = (   0.1666667   0.3849002   0.0000000), wk =   0.1666667
        k(   15) = (   0.1666667   0.4811252   0.0000000), wk =   0.1666667
        k(   16) = (   0.1666667   0.5773503   0.0000000), wk =   0.0833333
        k(   17) = (   0.2500000   0.4330127   0.0000000), wk =   0.0833333
        k(   18) = (   0.2500000   0.5292377   0.0000000), wk =   0.1666667
        k(   19) = (   0.3333333   0.5773503   0.0000000), wk =   0.0277778

     Dense  grid:    25507 G-vectors     FFT dimensions: (  24,  24, 128)

     Estimated max dynamical RAM per process >       9.45 MB

     Estimated total dynamical RAM >      66.16 MB

     Check: negative core charge=   -0.000008

     Initial potential from superposition of free atoms

     starting charge      31.9997, renormalised to      32.0000

     negative rho (up, down):  4.904E-04 0.000E+00
     Starting wfcs are   32 randomized atomic wfcs

     total cpu time spent up to now is        1.0 secs

     per-process dynamical memory:    12.9 Mb

     Self-consistent Calculation

     iteration #  1     ecut=    50.00 Ry     beta= 0.70
     Davidson diagonalization with overlap
     ethr =  1.00E-02,  avg # of iterations = 11.6

     negative rho (up, down):  6.068E-03 0.000E+00

     total cpu time spent up to now is        3.3 secs

     total energy              =     -16.47087067 Ry
     estimated scf accuracy    <      49.71698679 Ry

     iteration #  2     ecut=    50.00 Ry     beta= 0.70
     Davidson diagonalization with overlap
     c_bands:  2 eigenvalues not converged
     c_bands:  1 eigenvalues not converged
     c_bands:  2 eigenvalues not converged
     c_bands:  2 eigenvalues not converged
     c_bands:  4 eigenvalues not converged
     c_bands:  1 eigenvalues not converged
     c_bands:  2 eigenvalues not converged
     c_bands:  4 eigenvalues not converged
     c_bands:  4 eigenvalues not converged
     c_bands:  1 eigenvalues not converged
     c_bands:  1 eigenvalues not converged
     c_bands:  2 eigenvalues not converged
     c_bands:  5 eigenvalues not converged
     c_bands:  3 eigenvalues not converged
     ethr =  1.00E-02,  avg # of iterations = 20.1

     total cpu time spent up to now is        7.6 secs

     total energy              =      31.68172754 Ry
     estimated scf accuracy    <     276.94351774 Ry

     iteration #  3     ecut=    50.00 Ry     beta= 0.70
     Davidson diagonalization with overlap
     c_bands:  1 eigenvalues not converged
     c_bands:  2 eigenvalues not converged
     ethr =  1.00E-02,  avg # of iterations = 15.7

     total cpu time spent up to now is       10.4 secs

     total energy              =     -36.96157397 Ry
     estimated scf accuracy    <       6.92892591 Ry

     iteration #  4     ecut=    50.00 Ry     beta= 0.70
     Davidson diagonalization with overlap
     ethr =  1.00E-02,  avg # of iterations =  3.5

     total cpu time spent up to now is       11.2 secs

     total energy              =     -35.92574841 Ry
     estimated scf accuracy    <       4.30992205 Ry

     iteration #  5     ecut=    50.00 Ry     beta= 0.70
     Davidson diagonalization with overlap
     ethr =  1.00E-02,  avg # of iterations =  1.3

     total cpu time spent up to now is       11.9 secs

     total energy              =     -35.82211879 Ry
     estimated scf accuracy    <       2.70045707 Ry

     iteration #  6     ecut=    50.00 Ry     beta= 0.70
     Davidson diagonalization with overlap
     ethr =  8.44E-03,  avg # of iterations =  1.0

     total cpu time spent up to now is       12.6 secs

     total energy              =     -35.67359392 Ry
     estimated scf accuracy    <       2.12436214 Ry

     iteration #  7     ecut=    50.00 Ry     beta= 0.70
     Davidson diagonalization with overlap
     ethr =  6.64E-03,  avg # of iterations =  1.1

     total cpu time spent up to now is       13.3 secs

     total energy              =     -35.80468884 Ry
     estimated scf accuracy    <       1.70329818 Ry

     iteration #  8     ecut=    50.00 Ry     beta= 0.70
     Davidson diagonalization with overlap
     ethr =  5.32E-03,  avg # of iterations =  1.0

     total cpu time spent up to now is       13.9 secs

     total energy              =     -35.80575797 Ry
     estimated scf accuracy    <       1.83194599 Ry

     iteration #  9     ecut=    50.00 Ry     beta= 0.70
     Davidson diagonalization with overlap
     ethr =  5.32E-03,  avg # of iterations =  1.0

     total cpu time spent up to now is       14.5 secs

     total energy              =     -35.35776500 Ry
     estimated scf accuracy    <       1.74262746 Ry

     iteration # 10     ecut=    50.00 Ry     beta= 0.70
     Davidson diagonalization with overlap
     ethr =  5.32E-03,  avg # of iterations =  1.1

     total cpu time spent up to now is       15.2 secs

     total energy              =     -35.13727556 Ry
     estimated scf accuracy    <       1.04002019 Ry

     iteration # 11     ecut=    50.00 Ry     beta= 0.70
     Davidson diagonalization with overlap
     ethr =  3.25E-03,  avg # of iterations =  2.5

     negative rho (up, down):  4.320E-03 0.000E+00

     total cpu time spent up to now is       16.0 secs

     total energy              =     -34.65282875 Ry
     estimated scf accuracy    <       0.65507932 Ry

     iteration # 12     ecut=    50.00 Ry     beta= 0.70
     Davidson diagonalization with overlap
     c_bands:  1 eigenvalues not converged
     ethr =  2.05E-03,  avg # of iterations = 11.1

     negative rho (up, down):  4.215E-06 0.000E+00

     total cpu time spent up to now is       17.3 secs

     total energy              =     -34.74745679 Ry
     estimated scf accuracy    <       0.80704629 Ry

     iteration # 13     ecut=    50.00 Ry     beta= 0.70
     Davidson diagonalization with overlap
     ethr =  2.05E-03,  avg # of iterations =  4.8

     negative rho (up, down):  2.275E-02 0.000E+00

     total cpu time spent up to now is       18.1 secs

     total energy              =     -35.55472550 Ry
     estimated scf accuracy    <       0.97566483 Ry

     iteration # 14     ecut=    50.00 Ry     beta= 0.70
     Davidson diagonalization with overlap
     ethr =  2.05E-03,  avg # of iterations =  4.2

     negative rho (up, down):  2.579E-02 0.000E+00

     total cpu time spent up to now is       19.1 secs

     total energy              =     -34.85194107 Ry
     estimated scf accuracy    <       2.86650121 Ry

     iteration # 15     ecut=    50.00 Ry     beta= 0.70
     Davidson diagonalization with overlap
     ethr =  2.05E-03,  avg # of iterations =  2.0

     negative rho (up, down):  3.292E-02 0.000E+00

     total cpu time spent up to now is       19.8 secs

     total energy              =     -35.06744850 Ry
     estimated scf accuracy    <       0.71550628 Ry

     iteration # 16     ecut=    50.00 Ry     beta= 0.70
     Davidson diagonalization with overlap
     ethr =  2.05E-03,  avg # of iterations =  1.1

     negative rho (up, down):  1.076E-03 0.000E+00

     total cpu time spent up to now is       20.5 secs

     total energy              =     -34.74978603 Ry
     estimated scf accuracy    <       0.79067141 Ry

     iteration # 17     ecut=    50.00 Ry     beta= 0.70
     Davidson diagonalization with overlap
     ethr =  2.05E-03,  avg # of iterations =  4.1

     negative rho (up, down):  7.633E-06 0.000E+00

     total cpu time spent up to now is       21.5 secs

     total energy              =     -34.84823983 Ry
     estimated scf accuracy    <       0.49992080 Ry

     iteration # 18     ecut=    50.00 Ry     beta= 0.70
     Davidson diagonalization with overlap
     ethr =  1.56E-03,  avg # of iterations =  2.2

     total cpu time spent up to now is       22.2 secs

     total energy              =     -34.89963298 Ry
     estimated scf accuracy    <       0.15529393 Ry

     iteration # 19     ecut=    50.00 Ry     beta= 0.70
     Davidson diagonalization with overlap
     ethr =  4.85E-04,  avg # of iterations =  7.5

     negative rho (up, down):  2.169E-05 0.000E+00

     total cpu time spent up to now is       23.4 secs

     total energy              =     -34.90903342 Ry
     estimated scf accuracy    <       0.05830918 Ry

     iteration # 20     ecut=    50.00 Ry     beta= 0.70
     Davidson diagonalization with overlap
     c_bands:  1 eigenvalues not converged
     c_bands:  1 eigenvalues not converged
     c_bands:  1 eigenvalues not converged
     ethr =  1.82E-04,  avg # of iterations =  7.9

     negative rho (up, down):  5.233E-04 0.000E+00

     total cpu time spent up to now is       24.8 secs

     total energy              =     -34.91013427 Ry
     estimated scf accuracy    <       0.02795128 Ry

     iteration # 21     ecut=    50.00 Ry     beta= 0.70
     Davidson diagonalization with overlap
     c_bands:  2 eigenvalues not converged
     ethr =  8.73E-05,  avg # of iterations =  5.4

     negative rho (up, down):  4.950E-03 0.000E+00

     total cpu time spent up to now is       25.9 secs

     total energy              =     -34.90890585 Ry
     estimated scf accuracy    <       0.01210786 Ry

     iteration # 22     ecut=    50.00 Ry     beta= 0.70
     Davidson diagonalization with overlap
     c_bands:  2 eigenvalues not converged
     ethr =  3.78E-05,  avg # of iterations =  7.2

     negative rho (up, down):  7.059E-03 0.000E+00

     total cpu time spent up to now is       26.9 secs

     total energy              =     -34.91018757 Ry
     estimated scf accuracy    <       0.00787529 Ry

     iteration # 23     ecut=    50.00 Ry     beta= 0.70
     Davidson diagonalization with overlap
     ethr =  2.46E-05,  avg # of iterations =  4.3

     negative rho (up, down):  1.354E-02 0.000E+00

     total cpu time spent up to now is       27.6 secs

     total energy              =     -34.90930908 Ry
     estimated scf accuracy    <       0.00591493 Ry

     iteration # 24     ecut=    50.00 Ry     beta= 0.70
     Davidson diagonalization with overlap
     c_bands:  1 eigenvalues not converged
     ethr =  1.85E-05,  avg # of iterations =  7.2

     negative rho (up, down):  9.485E-03 0.000E+00

     total cpu time spent up to now is       28.6 secs

     total energy              =     -34.90913043 Ry
     estimated scf accuracy    <       0.00222697 Ry

     iteration # 25     ecut=    50.00 Ry     beta= 0.70
     Davidson diagonalization with overlap
     c_bands:  1 eigenvalues not converged
     c_bands:  1 eigenvalues not converged
     c_bands:  1 eigenvalues not converged
     c_bands:  1 eigenvalues not converged
     ethr =  6.96E-06,  avg # of iterations =  8.6

     negative rho (up, down):  4.855E-03 0.000E+00

     total cpu time spent up to now is       29.8 secs

     total energy              =     -34.90919746 Ry
     estimated scf accuracy    <       0.00057191 Ry

     iteration # 26     ecut=    50.00 Ry     beta= 0.70
     Davidson diagonalization with overlap
     c_bands:  1 eigenvalues not converged
     ethr =  1.79E-06,  avg # of iterations =  8.7

     negative rho (up, down):  3.783E-03 0.000E+00

     total cpu time spent up to now is       31.3 secs

     total energy              =     -34.90942092 Ry
     estimated scf accuracy    <       0.00016896 Ry

     iteration # 27     ecut=    50.00 Ry     beta= 0.70
     Davidson diagonalization with overlap
     ethr =  5.28E-07,  avg # of iterations =  4.7

     negative rho (up, down):  3.824E-03 0.000E+00

     total cpu time spent up to now is       32.4 secs

     total energy              =     -34.90944699 Ry
     estimated scf accuracy    <       0.00010353 Ry

     iteration # 28     ecut=    50.00 Ry     beta= 0.70
     Davidson diagonalization with overlap
     ethr =  3.24E-07,  avg # of iterations =  3.6

     negative rho (up, down):  3.776E-03 0.000E+00

     total cpu time spent up to now is       33.2 secs

     total energy              =     -34.90946794 Ry
     estimated scf accuracy    <       0.00000526 Ry

     iteration # 29     ecut=    50.00 Ry     beta= 0.70
     Davidson diagonalization with overlap
     ethr =  1.64E-08,  avg # of iterations = 10.7

     negative rho (up, down):  3.759E-03 0.000E+00

     total cpu time spent up to now is       35.8 secs

     total energy              =     -34.90948446 Ry
     estimated scf accuracy    <       0.00000088 Ry

     iteration # 30     ecut=    50.00 Ry     beta= 0.70
     Davidson diagonalization with overlap
     ethr =  2.75E-09,  avg # of iterations =  4.8

     negative rho (up, down):  3.755E-03 0.000E+00

     total cpu time spent up to now is       37.1 secs

     total energy              =     -34.90948477 Ry
     estimated scf accuracy    <       0.00000039 Ry

     iteration # 31     ecut=    50.00 Ry     beta= 0.70
     Davidson diagonalization with overlap
     ethr =  1.23E-09,  avg # of iterations =  3.6

     negative rho (up, down):  3.753E-03 0.000E+00

     total cpu time spent up to now is       38.1 secs

     total energy              =     -34.90948485 Ry
     estimated scf accuracy    <       0.00000005 Ry

     iteration # 32     ecut=    50.00 Ry     beta= 0.70
     Davidson diagonalization with overlap
     ethr =  1.51E-10,  avg # of iterations =  7.4

     negative rho (up, down):  3.753E-03 0.000E+00

     total cpu time spent up to now is       40.0 secs

     total energy              =     -34.90948491 Ry
     estimated scf accuracy    <       0.00000001 Ry

     iteration # 33     ecut=    50.00 Ry     beta= 0.70
     Davidson diagonalization with overlap
     ethr =  4.29E-11,  avg # of iterations =  4.2

     negative rho (up, down):  3.753E-03 0.000E+00

     total cpu time spent up to now is       41.0 secs

     End of self-consistent calculation

          k = 0.0000 0.0000 0.0000 (  3135 PWs)   bands (ev):

   -34.1038 -34.1038 -27.8724 -22.9123 -21.1370 -21.1370 -17.7991 -15.1429
   -15.1429  -8.1267  -8.0152  -5.4808  -2.4317  -2.4317  -1.7098   7.1171
     7.2529   8.5911   9.0507   9.8076

          k = 0.0000 0.0962 0.0000 (  3173 PWs)   bands (ev):

   -34.2794 -34.1720 -28.4251 -22.8470 -20.7693 -20.0575 -17.6599 -15.4421
   -15.3446  -8.2196  -8.0124  -5.3799  -2.1893  -2.0083  -1.5961   7.3426
     7.4810   8.2390   8.7474   8.8089

          k = 0.0000 0.1925 0.0000 (  3183 PWs)   bands (ev):

   -34.7226 -34.4211 -29.3194 -22.6251 -19.7772 -17.8223 -16.9332 -16.2113
   -15.8481  -8.7618  -7.6627  -5.1733  -1.4238  -1.2576  -0.8678   6.7469
     8.0191   8.0286   8.1559   8.4628

          k = 0.0000 0.2887 0.0000 (  3177 PWs)   bands (ev):

   -35.2592 -34.8908 -29.8416 -22.2669 -18.4366 -17.2382 -16.8457 -16.4489
   -14.0274  -9.5695  -7.1145  -5.0562  -0.7215  -0.2432   0.6775   5.0876
     7.0538   7.2198   8.3339   9.1519

          k = 0.0000 0.3849 0.0000 (  3189 PWs)   bands (ev):

   -35.7376 -35.4455 -29.9611 -21.7567 -18.3155 -17.0809 -16.9784 -16.0220
   -10.7340 -10.2689  -6.4773  -4.9703  -0.0354   1.1169   2.2559   3.4675
     5.4195   5.5979   6.5362   9.7786

          k = 0.0000 0.4811 0.0000 (  3207 PWs)   bands (ev):

   -36.0592 -35.8678 -29.9063 -21.1230 -19.3333 -17.3308 -16.0630 -15.1906
   -11.5794  -6.7807  -5.9804  -4.8556   0.7089   1.8469   2.2773   2.8093
     3.4603   4.4270   6.0904   8.0303

          k = 0.0000-0.5774 0.0000 (  3208 PWs)   bands (ev):

   -36.1715 -36.0211 -29.8661 -20.5211 -20.0478 -17.4535 -15.6809 -14.7266
   -12.0917  -5.8169  -4.7676  -4.5446   0.1450   1.2685   1.8189   2.7858
     3.9177   3.9571   5.9367   7.3193

          k = 0.0833 0.1443 0.0000 (  3191 PWs)   bands (ev):

   -34.6641 -34.2457 -29.1176 -22.7036 -20.0629 -18.4064 -17.2762 -15.9436
   -15.7311  -8.5883  -7.7755  -5.2463  -1.7644  -1.3693  -1.1578   7.2826
     7.7935   7.9339   8.0411   8.7612

          k = 0.0833 0.2406 0.0000 (  3176 PWs)   bands (ev):

   -35.3077 -34.4078 -29.7947 -22.4087 -18.8411 -17.1238 -16.7740 -16.3361
   -15.2568  -9.2490  -7.3062  -5.0277  -0.9338  -0.9256   0.2814   5.8890
     6.9274   7.5956   8.6939   8.8276

          k = 0.0833 0.3368 0.0000 (  3174 PWs)   bands (ev):

   -35.9839 -34.6942 -30.1203 -21.9742 -17.7824 -17.4326 -16.9261 -16.3613
   -11.9769 -10.1419  -6.6719  -4.9063  -0.3303   0.2591   1.8905   4.2327
     5.7176   6.2126   7.3556  10.0505

          k = 0.0833 0.4330 0.0000 (  3188 PWs)   bands (ev):

   -36.5242 -34.9959 -30.1650 -21.4027 -18.8097 -17.3728 -16.1930 -15.5121
   -11.1774  -8.3740  -6.0338  -4.8322   0.3600   1.5178   2.6886   3.1895
     3.6904   5.0102   6.0359   8.4493

          k = 0.0833 0.5292 0.0000 (  3187 PWs)   bands (ev):

   -36.8196 -35.1813 -30.1238 -20.7112 -19.7451 -17.6092 -15.4624 -14.7571
   -12.0049  -5.6388  -5.1355  -4.7430   0.7332   0.9546   2.0762   2.5201
     3.3175   4.7601   5.5276   7.1391

          k = 0.1667 0.2887 0.0000 (  3165 PWs)   bands (ev):

   -36.1065 -34.2984 -30.2843 -22.0264 -17.4597 -17.4479 -17.0655 -16.4793
   -12.5758 -10.0016  -6.7142  -4.8365  -0.4359  -0.1996   1.8464   4.9725
     5.0393   6.4490   7.9701   9.8268

          k = 0.1667 0.3849 0.0000 (  3167 PWs)   bands (ev):

   -36.8079 -34.2401 -30.6047 -21.5236 -18.2843 -17.6735 -16.0409 -15.6968
   -10.9148  -9.4206  -5.9985  -4.6868   0.1458   0.7817   3.1864   3.2553
     3.8539   5.4154   6.2814   8.2254

          k = 0.1667 0.4811 0.0000 (  3169 PWs)   bands (ev):

   -37.2731 -34.2434 -30.7361 -20.9022 -19.2040 -18.0233 -15.0222 -14.8016
   -11.8453  -6.1490  -5.3634  -4.6222   0.5564   1.7698   1.7865   2.3282
     3.2960   5.0999   5.3542   6.3412

          k = 0.1667 0.5774 0.0000 (  3186 PWs)   bands (ev):

   -37.4347 -34.2554 -30.7635 -20.2877 -19.9278 -18.1399 -14.6368 -14.2937
   -12.3728  -5.1027  -4.6137  -4.0461  -0.0147   0.6164   2.1405   2.5643
     2.6593   4.6697   5.6244   5.7342

          k = 0.2500 0.4330 0.0000 (  3157 PWs)   bands (ev):

   -37.4282 -33.7474 -31.1402 -20.9610 -18.7196 -18.4756 -14.9068 -14.6979
   -11.7727  -6.6193  -5.2563  -4.5133   0.3928   1.4389   2.3103   2.3747
     3.3350   5.1341   5.5657   5.6853

          k = 0.2500 0.5292 0.0000 (  3158 PWs)   bands (ev):

   -37.7556 -33.3720 -31.5380 -20.2856 -19.4662 -18.7949 -14.1533 -13.8434
   -12.5859  -4.7057  -4.4636  -3.8889   0.0612   0.2871   2.0559   2.4594
     2.7204   4.1375   4.5010   6.1431

          k = 0.3333 0.5774 0.0000 (  3171 PWs)   bands (ev):

   -37.9212 -32.4466 -32.4466 -19.6332 -19.5449 -19.5449 -13.4153 -13.3557
   -13.3557  -4.4208  -4.4208  -1.7114  -1.7114  -0.1651   2.2967   2.2967
     3.1655   3.1655   3.9132   6.4648

     the Fermi energy is     3.5266 ev

!    total energy              =     -34.90948492 Ry
     estimated scf accuracy    <          9.9E-10 Ry
     smearing contrib. (-TS)   =       0.00104918 Ry
     internal energy E=F+TS    =     -34.91053409 Ry

     The total energy is F=E-TS. E is the sum of the following terms:
     one-electron contribution =   -2293.74268961 Ry
     hartree contribution      =    1159.23677810 Ry
     xc contribution           =     -49.21844146 Ry
     ewald contribution        =    1148.81381887 Ry

     convergence has been achieved in  33 iterations

     negative rho (up, down):  3.753E-03 0.000E+00

     Forces acting on atoms (cartesian axes, Ry/au):

     atom    1 type  1   force =     0.00000000    0.00000000  -22.23880668
     atom    2 type  1   force =     0.00000000    0.00000000  -22.23880668
     atom    3 type  1   force =     0.00000000    0.00000000    2.73503419
     atom    4 type  1   force =     0.00000000   -0.00000000    2.73503419
     atom    5 type  1   force =     0.00000000    0.00000000   -2.73527557
     atom    6 type  1   force =     0.00000000   -0.00000000   -2.73527557
     atom    7 type  1   force =     0.00000000    0.00000000   22.23904806
     atom    8 type  1   force =     0.00000000    0.00000000   22.23904806

     Total force =    44.812988     Total SCF correction =     0.000065


     Computing stress (Cartesian axis) and pressure


     negative rho (up, down):  3.753E-03 0.000E+00
          total   stress  (Ry/bohr**3)                   (kbar)     P=    12950.34
   0.02135533   0.00000000  -0.00000000         3141.48        0.00       -0.00
   0.00000000   0.02135533   0.00000000            0.00     3141.48        0.00
  -0.00000000   0.00000000   0.22139325           -0.00        0.00    32568.07


     Writing all to output data dir /home/rfa/Skripsi/DFT/dft-graphene/tmp/gr-aa-4L.save/ :
     XML data file, charge density, pseudopotentials, collected wavefunctions

     init_run     :      1.03s CPU      0.93s WALL (       1 calls)
     electrons    :     74.82s CPU     39.95s WALL (       1 calls)
     forces       :      0.23s CPU      0.13s WALL (       1 calls)
     stress       :      0.86s CPU      0.49s WALL (       1 calls)

     Called by init_run:
     wfcinit      :      0.79s CPU      0.47s WALL (       1 calls)
     potinit      :      0.01s CPU      0.01s WALL (       1 calls)
     hinit0       :      0.21s CPU      0.42s WALL (       1 calls)

     Called by electrons:
     c_bands      :     67.46s CPU     35.85s WALL (      33 calls)
     sum_band     :      6.50s CPU      3.44s WALL (      33 calls)
     v_of_rho     :      0.36s CPU      0.30s WALL (      34 calls)
     newd         :      0.25s CPU      0.22s WALL (      34 calls)
     mix_rho      :      0.20s CPU      0.11s WALL (      33 calls)

     Called by c_bands:
     init_us_2    :      1.41s CPU      0.72s WALL (    1311 calls)
     cegterg      :     65.13s CPU     34.54s WALL (     628 calls)

     Called by *egterg:
     cdiaghg      :      8.20s CPU      4.28s WALL (    4147 calls)
     h_psi        :     43.36s CPU     23.15s WALL (    4166 calls)
     s_psi        :      2.64s CPU      1.39s WALL (    4166 calls)
     g_psi        :      0.48s CPU      0.25s WALL (    3519 calls)

     Called by h_psi:
     h_psi:calbec :      5.50s CPU      2.98s WALL (    4166 calls)
     vloc_psi     :     34.53s CPU     18.36s WALL (    4166 calls)
     add_vuspsi   :      2.84s CPU      1.52s WALL (    4166 calls)

     General routines
     calbec       :      6.82s CPU      3.70s WALL (    5116 calls)
     fft          :      0.32s CPU      0.51s WALL (     399 calls)
     ffts         :      0.02s CPU      0.01s WALL (      33 calls)
     fftw         :     33.14s CPU     17.54s WALL (  100648 calls)

     Parallel routines

     PWSCF        :   1m17.07s CPU     41.88s WALL


   This run was terminated on:  14:41:25  16Apr2025            

=------------------------------------------------------------------------------=
   JOB DONE.
=------------------------------------------------------------------------------=
