
     Program PWSCF v.7.4.1 starts on 16Apr2025 at 14:39:44 

     This program is part of the open-source Quantum ESPRESSO suite
     for quantum simulation of materials; please cite
         "P. Giannozzi et al., J. Phys.:Condens. Matter 21 395502 (2009);
         "P. Giannozzi et al., J. Phys.:Condens. Matter 29 465901 (2017);
         "P. Giannozzi et al., J. Chem. Phys. 152 154105 (2020);
          URL http://www.quantum-espresso.org", 
     in publications or presentations arising from this work. More details at
     http://www.quantum-espresso.org/quote

     Parallel version (MPI), running on     7 processors

     MPI processes distributed on     1 nodes
     13580 MiB available memory on the printing compute node when the environment starts

     Waiting for input...
     Reading input from standard input

     Current dimensions of program PWSCF are:
     Max number of different atomic species (ntypx) = 10
     Max number of k-points (npk) =  40000
     Max angular momentum in pseudopotentials (lmaxx) =  4

     R & G space division:  proc/nbgrp/npool/nimage =       7
     Subspace diagonalization in iterative solution of the eigenvalue problem:
     a serial algorithm will be used


     Parallelization info
     --------------------
     sticks:   dense  smooth     PW     G-vecs:    dense   smooth      PW
     Min          29      29      9                 2121     2121     397
     Max          31      31     13                 2125     2125     402
     Sum         211     211     73                14861    14861    2797

     Using Slab Decomposition



     bravais-lattice index     =            4
     lattice parameter (alat)  =       4.6561  a.u.
     unit-cell volume          =     532.1899 (a.u.)^3
     number of atoms/cell      =            8
     number of atomic types    =            1
     number of electrons       =        32.00
     number of Kohn-Sham states=           20
     kinetic-energy cutoff     =      35.0000  Ry
     charge density cutoff     =     140.0000  Ry
     scf convergence threshold =      1.0E-08
     mixing beta               =       0.7000
     number of iterations used =            8  plain     mixing
     Exchange-correlation= PBE
                           (   1   4   3   4   0   0   0)

     celldm(1)=   4.656107  celldm(2)=   0.000000  celldm(3)=   6.087896
     celldm(4)=   0.000000  celldm(5)=   0.000000  celldm(6)=   0.000000

     crystal axes: (cart. coord. in units of alat)
               a(1) = (   1.000000   0.000000   0.000000 )  
               a(2) = (  -0.500000   0.866025   0.000000 )  
               a(3) = (   0.000000   0.000000   6.087896 )  

     reciprocal axes: (cart. coord. in units 2 pi/alat)
               b(1) = (  1.000000  0.577350 -0.000000 )  
               b(2) = (  0.000000  1.154701  0.000000 )  
               b(3) = (  0.000000 -0.000000  0.164260 )  


     PseudoPot. # 1 for C  read from file:
     /home/rfa/Skripsi/DFT/dft-graphene/pseudo/C.pbe-n-rrkjus_psl.0.1.UPF
     MD5 check sum: 96a6a315177d77e6c95bf6fd3870f9e3
     Pseudo is Ultrasoft + core correction, Zval =  4.0
     Generated using &quot;atomic&quot; code by A. Dal Corso  v.6.3MaX
     Using radial grid of 1073 points,  4 beta functions with: 
                l(1) =   0
                l(2) =   0
                l(3) =   1
                l(4) =   1
     Q(r) pseudized with 0 coefficients 


     atomic species   valence    mass     pseudopotential
     C                 4.00    12.01070     C ( 1.00)

     12 Sym. Ops. (no inversion) found



   Cartesian axes

     site n.     atom                  positions (alat units)
         1        C      tau(   1) = (   0.0000000   0.5773503   3.0439478  )
         2        C      tau(   2) = (   0.5000000   0.2886751   3.0439478  )
         3        C      tau(   3) = (   0.0000000   0.5773503   3.2468777  )
         4        C      tau(   4) = (   0.5000000   0.2886751   3.2468777  )
         5        C      tau(   5) = (   0.0000000   0.5773503   3.4498075  )
         6        C      tau(   6) = (   0.5000000   0.2886751   3.4498075  )
         7        C      tau(   7) = (   0.0000000   0.5773503   3.6527374  )
         8        C      tau(   8) = (   0.5000000   0.2886751   3.6527374  )

     number of k points=    19  Marzari-Vanderbilt smearing, width (Ry)=  0.0200
                       cart. coord. in units 2pi/alat
        k(    1) = (   0.0000000   0.0000000   0.0000000), wk =   0.0138889
        k(    2) = (   0.0000000   0.0962250   0.0000000), wk =   0.0833333
        k(    3) = (   0.0000000   0.1924501   0.0000000), wk =   0.0833333
        k(    4) = (   0.0000000   0.2886751   0.0000000), wk =   0.0833333
        k(    5) = (   0.0000000   0.3849002   0.0000000), wk =   0.0833333
        k(    6) = (   0.0000000   0.4811252   0.0000000), wk =   0.0833333
        k(    7) = (   0.0000000  -0.5773503   0.0000000), wk =   0.0416667
        k(    8) = (   0.0833333   0.1443376   0.0000000), wk =   0.0833333
        k(    9) = (   0.0833333   0.2405626   0.0000000), wk =   0.1666667
        k(   10) = (   0.0833333   0.3367877   0.0000000), wk =   0.1666667
        k(   11) = (   0.0833333   0.4330127   0.0000000), wk =   0.1666667
        k(   12) = (   0.0833333   0.5292377   0.0000000), wk =   0.1666667
        k(   13) = (   0.1666667   0.2886751   0.0000000), wk =   0.0833333
        k(   14) = (   0.1666667   0.3849002   0.0000000), wk =   0.1666667
        k(   15) = (   0.1666667   0.4811252   0.0000000), wk =   0.1666667
        k(   16) = (   0.1666667   0.5773503   0.0000000), wk =   0.0833333
        k(   17) = (   0.2500000   0.4330127   0.0000000), wk =   0.0833333
        k(   18) = (   0.2500000   0.5292377   0.0000000), wk =   0.1666667
        k(   19) = (   0.3333333   0.5773503   0.0000000), wk =   0.0277778

     Dense  grid:    14861 G-vectors     FFT dimensions: (  18,  18, 108)

     Estimated max dynamical RAM per process >       5.52 MB

     Estimated total dynamical RAM >      38.61 MB

     Check: negative core charge=   -0.000027

     Initial potential from superposition of free atoms

     starting charge      31.9997, renormalised to      32.0000

     negative rho (up, down):  1.556E-03 0.000E+00
     Starting wfcs are   32 randomized atomic wfcs

     total cpu time spent up to now is        0.6 secs

     per-process dynamical memory:    10.3 Mb

     Self-consistent Calculation

     iteration #  1     ecut=    35.00 Ry     beta= 0.70
     Davidson diagonalization with overlap
     ethr =  1.00E-02,  avg # of iterations =  9.9

     negative rho (up, down):  2.755E-02 0.000E+00

     total cpu time spent up to now is        1.5 secs

     total energy              =     -16.89254194 Ry
     estimated scf accuracy    <      43.71883031 Ry

     iteration #  2     ecut=    35.00 Ry     beta= 0.70
     Davidson diagonalization with overlap
     ethr =  1.00E-02,  avg # of iterations = 17.2

     total cpu time spent up to now is        2.9 secs

     total energy              =      32.99737711 Ry
     estimated scf accuracy    <     289.54788250 Ry

     iteration #  3     ecut=    35.00 Ry     beta= 0.70
     Davidson diagonalization with overlap
     c_bands:  1 eigenvalues not converged
     ethr =  1.00E-02,  avg # of iterations = 13.8

     total cpu time spent up to now is        4.1 secs

     total energy              =     -35.11274570 Ry
     estimated scf accuracy    <       6.22140285 Ry

     iteration #  4     ecut=    35.00 Ry     beta= 0.70
     Davidson diagonalization with overlap
     ethr =  1.00E-02,  avg # of iterations =  3.0

     total cpu time spent up to now is        4.5 secs

     total energy              =     -34.29305738 Ry
     estimated scf accuracy    <       3.87731898 Ry

     iteration #  5     ecut=    35.00 Ry     beta= 0.70
     Davidson diagonalization with overlap
     ethr =  1.00E-02,  avg # of iterations =  1.1

     total cpu time spent up to now is        4.8 secs

     total energy              =     -34.16468794 Ry
     estimated scf accuracy    <       2.32509746 Ry

     iteration #  6     ecut=    35.00 Ry     beta= 0.70
     Davidson diagonalization with overlap
     ethr =  7.27E-03,  avg # of iterations =  1.0

     total cpu time spent up to now is        5.0 secs

     total energy              =     -34.11185241 Ry
     estimated scf accuracy    <       2.04146403 Ry

     iteration #  7     ecut=    35.00 Ry     beta= 0.70
     Davidson diagonalization with overlap
     ethr =  6.38E-03,  avg # of iterations =  1.0

     total cpu time spent up to now is        5.3 secs

     total energy              =     -34.11150808 Ry
     estimated scf accuracy    <       1.87579409 Ry

     iteration #  8     ecut=    35.00 Ry     beta= 0.70
     Davidson diagonalization with overlap
     ethr =  5.86E-03,  avg # of iterations =  1.0

     total cpu time spent up to now is        5.6 secs

     total energy              =     -34.09369749 Ry
     estimated scf accuracy    <       1.84965699 Ry

     iteration #  9     ecut=    35.00 Ry     beta= 0.70
     Davidson diagonalization with overlap
     ethr =  5.78E-03,  avg # of iterations =  1.0

     negative rho (up, down):  4.911E-04 0.000E+00

     total cpu time spent up to now is        5.9 secs

     total energy              =     -32.92989922 Ry
     estimated scf accuracy    <       1.77900584 Ry

     iteration # 10     ecut=    35.00 Ry     beta= 0.70
     Davidson diagonalization with overlap
     ethr =  5.56E-03,  avg # of iterations =  2.0

     negative rho (up, down):  1.649E-03 0.000E+00

     total cpu time spent up to now is        6.2 secs

     total energy              =     -33.07047678 Ry
     estimated scf accuracy    <       0.79052217 Ry

     iteration # 11     ecut=    35.00 Ry     beta= 0.70
     Davidson diagonalization with overlap
     ethr =  2.47E-03,  avg # of iterations =  2.9

     negative rho (up, down):  2.788E-02 0.000E+00

     total cpu time spent up to now is        6.6 secs

     total energy              =     -33.19448695 Ry
     estimated scf accuracy    <       0.47476327 Ry

     iteration # 12     ecut=    35.00 Ry     beta= 0.70
     Davidson diagonalization with overlap
     ethr =  1.48E-03,  avg # of iterations =  3.9

     negative rho (up, down):  2.931E-02 0.000E+00

     total cpu time spent up to now is        7.0 secs

     total energy              =     -33.33398997 Ry
     estimated scf accuracy    <       0.89725510 Ry

     iteration # 13     ecut=    35.00 Ry     beta= 0.70
     Davidson diagonalization with overlap
     ethr =  1.48E-03,  avg # of iterations =  1.5

     negative rho (up, down):  2.832E-02 0.000E+00

     total cpu time spent up to now is        7.3 secs

     total energy              =     -32.83658529 Ry
     estimated scf accuracy    <       1.13763670 Ry

     iteration # 14     ecut=    35.00 Ry     beta= 0.70
     Davidson diagonalization with overlap
     ethr =  1.48E-03,  avg # of iterations =  2.9

     negative rho (up, down):  2.052E-02 0.000E+00

     total cpu time spent up to now is        7.6 secs

     total energy              =     -32.88262866 Ry
     estimated scf accuracy    <       0.18737597 Ry

     iteration # 15     ecut=    35.00 Ry     beta= 0.70
     Davidson diagonalization with overlap
     ethr =  5.86E-04,  avg # of iterations =  4.3

     negative rho (up, down):  2.262E-02 0.000E+00

     total cpu time spent up to now is        8.0 secs

     total energy              =     -32.91371614 Ry
     estimated scf accuracy    <       0.03139713 Ry

     iteration # 16     ecut=    35.00 Ry     beta= 0.70
     Davidson diagonalization with overlap
     c_bands:  1 eigenvalues not converged
     ethr =  9.81E-05,  avg # of iterations =  8.6

     negative rho (up, down):  2.122E-02 0.000E+00

     total cpu time spent up to now is        8.6 secs

     total energy              =     -32.92605227 Ry
     estimated scf accuracy    <       0.00988794 Ry

     iteration # 17     ecut=    35.00 Ry     beta= 0.70
     Davidson diagonalization with overlap
     ethr =  3.09E-05,  avg # of iterations =  4.7

     negative rho (up, down):  2.079E-02 0.000E+00

     total cpu time spent up to now is        9.1 secs

     total energy              =     -32.92612822 Ry
     estimated scf accuracy    <       0.00926203 Ry

     iteration # 18     ecut=    35.00 Ry     beta= 0.70
     Davidson diagonalization with overlap
     ethr =  2.89E-05,  avg # of iterations =  5.9

     negative rho (up, down):  2.048E-02 0.000E+00

     total cpu time spent up to now is        9.6 secs

     total energy              =     -32.92902142 Ry
     estimated scf accuracy    <       0.03930257 Ry

     iteration # 19     ecut=    35.00 Ry     beta= 0.70
     Davidson diagonalization with overlap
     ethr =  2.89E-05,  avg # of iterations =  5.8

     negative rho (up, down):  2.522E-02 0.000E+00

     total cpu time spent up to now is       10.0 secs

     total energy              =     -32.93578329 Ry
     estimated scf accuracy    <       0.03726573 Ry

     iteration # 20     ecut=    35.00 Ry     beta= 0.70
     Davidson diagonalization with overlap
     ethr =  2.89E-05,  avg # of iterations =  2.3

     negative rho (up, down):  2.647E-02 0.000E+00

     total cpu time spent up to now is       10.4 secs

     total energy              =     -32.95241802 Ry
     estimated scf accuracy    <       0.03731309 Ry

     iteration # 21     ecut=    35.00 Ry     beta= 0.70
     Davidson diagonalization with overlap
     ethr =  2.89E-05,  avg # of iterations =  5.0

     negative rho (up, down):  2.651E-02 0.000E+00

     total cpu time spent up to now is       10.9 secs

     total energy              =     -32.95725285 Ry
     estimated scf accuracy    <       0.08482771 Ry

     iteration # 22     ecut=    35.00 Ry     beta= 0.70
     Davidson diagonalization with overlap
     ethr =  2.89E-05,  avg # of iterations =  1.1

     negative rho (up, down):  2.533E-02 0.000E+00

     total cpu time spent up to now is       11.2 secs

     total energy              =     -32.92617322 Ry
     estimated scf accuracy    <       0.08515883 Ry

     iteration # 23     ecut=    35.00 Ry     beta= 0.70
     Davidson diagonalization with overlap
     ethr =  2.89E-05,  avg # of iterations =  4.0

     negative rho (up, down):  2.441E-02 0.000E+00

     total cpu time spent up to now is       11.7 secs

     total energy              =     -32.91996285 Ry
     estimated scf accuracy    <       0.01955205 Ry

     iteration # 24     ecut=    35.00 Ry     beta= 0.70
     Davidson diagonalization with overlap
     ethr =  2.89E-05,  avg # of iterations =  4.9

     negative rho (up, down):  2.419E-02 0.000E+00

     total cpu time spent up to now is       12.2 secs

     total energy              =     -32.92548602 Ry
     estimated scf accuracy    <       0.00130281 Ry

     iteration # 25     ecut=    35.00 Ry     beta= 0.70
     Davidson diagonalization with overlap
     ethr =  4.07E-06,  avg # of iterations =  4.3

     negative rho (up, down):  2.411E-02 0.000E+00

     total cpu time spent up to now is       12.7 secs

     total energy              =     -32.92640490 Ry
     estimated scf accuracy    <       0.00099516 Ry

     iteration # 26     ecut=    35.00 Ry     beta= 0.70
     Davidson diagonalization with overlap
     ethr =  3.11E-06,  avg # of iterations =  3.6

     negative rho (up, down):  2.427E-02 0.000E+00

     total cpu time spent up to now is       13.0 secs

     total energy              =     -32.92599123 Ry
     estimated scf accuracy    <       0.00189603 Ry

     iteration # 27     ecut=    35.00 Ry     beta= 0.70
     Davidson diagonalization with overlap
     ethr =  3.11E-06,  avg # of iterations =  1.2

     negative rho (up, down):  2.425E-02 0.000E+00

     total cpu time spent up to now is       13.3 secs

     total energy              =     -32.92601321 Ry
     estimated scf accuracy    <       0.00071544 Ry

     iteration # 28     ecut=    35.00 Ry     beta= 0.70
     Davidson diagonalization with overlap
     ethr =  2.24E-06,  avg # of iterations =  1.0

     negative rho (up, down):  2.424E-02 0.000E+00

     total cpu time spent up to now is       13.6 secs

     total energy              =     -32.92577198 Ry
     estimated scf accuracy    <       0.00054221 Ry

     iteration # 29     ecut=    35.00 Ry     beta= 0.70
     Davidson diagonalization with overlap
     ethr =  1.69E-06,  avg # of iterations =  3.2

     negative rho (up, down):  2.427E-02 0.000E+00

     total cpu time spent up to now is       14.0 secs

     total energy              =     -32.92588237 Ry
     estimated scf accuracy    <       0.00005745 Ry

     iteration # 30     ecut=    35.00 Ry     beta= 0.70
     Davidson diagonalization with overlap
     ethr =  1.80E-07,  avg # of iterations =  6.1

     negative rho (up, down):  2.427E-02 0.000E+00

     total cpu time spent up to now is       14.6 secs

     total energy              =     -32.92593621 Ry
     estimated scf accuracy    <       0.00002761 Ry

     iteration # 31     ecut=    35.00 Ry     beta= 0.70
     Davidson diagonalization with overlap
     ethr =  8.63E-08,  avg # of iterations =  2.3

     negative rho (up, down):  2.426E-02 0.000E+00

     total cpu time spent up to now is       15.0 secs

     total energy              =     -32.92592693 Ry
     estimated scf accuracy    <       0.00001963 Ry

     iteration # 32     ecut=    35.00 Ry     beta= 0.70
     Davidson diagonalization with overlap
     ethr =  6.13E-08,  avg # of iterations =  2.3

     negative rho (up, down):  2.425E-02 0.000E+00

     total cpu time spent up to now is       15.3 secs

     total energy              =     -32.92593055 Ry
     estimated scf accuracy    <       0.00000028 Ry

     iteration # 33     ecut=    35.00 Ry     beta= 0.70
     Davidson diagonalization with overlap
     ethr =  8.69E-10,  avg # of iterations = 10.1

     negative rho (up, down):  2.425E-02 0.000E+00

     total cpu time spent up to now is       16.3 secs

     total energy              =     -32.92593187 Ry
     estimated scf accuracy    <       0.00000131 Ry

     iteration # 34     ecut=    35.00 Ry     beta= 0.70
     Davidson diagonalization with overlap
     ethr =  8.69E-10,  avg # of iterations =  5.0

     negative rho (up, down):  2.425E-02 0.000E+00

     total cpu time spent up to now is       16.9 secs

     total energy              =     -32.92593211 Ry
     estimated scf accuracy    <       0.00000001 Ry

     iteration # 35     ecut=    35.00 Ry     beta= 0.70
     Davidson diagonalization with overlap
     ethr =  4.43E-11,  avg # of iterations =  7.4

     negative rho (up, down):  2.425E-02 0.000E+00

     total cpu time spent up to now is       17.6 secs

     total energy              =     -32.92593213 Ry
     estimated scf accuracy    <       0.00000001 Ry

     iteration # 36     ecut=    35.00 Ry     beta= 0.70
     Davidson diagonalization with overlap
     ethr =  3.50E-11,  avg # of iterations =  1.0

     negative rho (up, down):  2.425E-02 0.000E+00

     total cpu time spent up to now is       17.8 secs

     End of self-consistent calculation

          k = 0.0000 0.0000 0.0000 (  1907 PWs)   bands (ev):

   -34.8996 -34.8996 -27.9583 -21.9777 -21.9777 -20.2243 -17.8894 -15.3230
   -15.3230  -8.5948  -7.9691  -2.6023  -2.6023  -2.5889  -0.5769   6.0408
     6.3359   7.6945   8.8990   8.8991

          k = 0.0000 0.0962 0.0000 (  1889 PWs)   bands (ev):

   -35.0686 -34.9572 -28.6139 -21.6226 -20.8117 -20.3174 -17.8298 -15.5195
   -15.5144  -8.7595  -7.8722  -2.4771  -2.2503  -2.1837  -0.6175   6.2677
     6.5640   7.9141   8.0518   8.6003

          k = 0.0000 0.1925 0.0000 (  1891 PWs)   bands (ev):

   -35.4975 -35.1723 -29.6366 -20.6689 -20.2553 -18.3612 -17.2558 -16.0356
   -16.0164  -9.3698  -7.4956  -2.1367  -1.5092  -1.0636  -0.7397   6.4491
     6.9481   7.2469   7.8837   8.5737

          k = 0.0000 0.2887 0.0000 (  1870 PWs)   bands (ev):

   -36.0187 -35.5885 -30.2588 -20.0237 -19.3815 -17.0011 -16.6610 -16.6100
   -14.5950 -10.0969  -6.8367  -1.5887  -1.5280   0.4544   0.5370   4.6764
     7.0806   8.0762   8.2459   8.3747

          k = 0.0000 0.3849 0.0000 (  1848 PWs)   bands (ev):

   -36.4841 -36.0928 -30.4621 -19.7857 -18.0863 -17.2360 -17.1310 -16.1678
   -11.0994 -10.7659  -5.9864  -1.8193  -0.8760   1.9985   2.3250   2.9608
     5.3285   6.4021   9.5353  10.0092

          k = 0.0000 0.4811 0.0000 (  1838 PWs)   bands (ev):

   -36.7970 -36.4870 -30.4577 -19.6750 -17.6309 -17.4791 -17.1177 -15.3988
   -11.8416  -7.3402  -5.0926  -2.5356  -0.0583   1.3818   2.5695   3.1739
     4.2455   5.9586   7.6955   7.7886

          k = 0.0000-0.5774 0.0000 (  1852 PWs)   bands (ev):

   -36.9077 -36.6320 -30.4347 -19.6600 -17.9107 -17.6011 -16.7573 -15.0579
   -12.3318  -5.1999  -4.6176  -2.9930  -0.0402   0.8267   1.0214   3.6174
     5.8050   5.9061   5.9169   7.0352

          k = 0.0833 0.1443 0.0000 (  1893 PWs)   bands (ev):

   -35.4351 -35.0175 -29.3961 -20.9428 -20.1822 -19.0347 -17.4624 -15.8714
   -15.8499  -9.1392  -7.5980  -2.2471  -1.5587  -1.5198  -0.6089   6.7213
     7.0179   7.0197   7.8938   8.3541

          k = 0.0833 0.2406 0.0000 (  1862 PWs)   bands (ev):

   -36.0497 -35.1512 -30.1765 -20.1579 -19.7661 -17.3499 -16.4357 -16.4038
   -15.8053  -9.7898  -7.1067  -1.8063  -1.5552  -0.3430   0.1851   5.5257
     6.7684   7.6281   7.9252   9.2284

          k = 0.0833 0.3368 0.0000 (  1859 PWs)   bands (ev):

   -36.6984 -35.4026 -30.5899 -19.9614 -18.4166 -17.0189 -16.9467 -16.5067
   -12.5268 -10.5999  -6.3596  -1.8975  -1.1826   1.2092   1.7468   3.7902
     5.5365   7.2990   8.9890   9.2526

          k = 0.0833 0.4330 0.0000 (  1850 PWs)   bands (ev):

   -37.2176 -35.6773 -30.7031 -19.7885 -17.5013 -17.3695 -17.2319 -15.7050
   -11.5776  -8.9144  -5.4728  -2.4055  -0.4343   2.1609   2.7221   3.3958
     3.5584   5.8956   8.2251   8.3069

          k = 0.0833 0.5292 0.0000 (  1844 PWs)   bands (ev):

   -37.5019 -35.8497 -30.6944 -19.7340 -17.7414 -17.5994 -16.5348 -15.0197
   -12.2939  -5.7239  -4.6751  -2.9817   0.2854   0.5548   1.5021   3.6120
     5.0194   5.3179   6.7604   6.9172

          k = 0.1667 0.2887 0.0000 (  1865 PWs)   bands (ev):

   -36.8188 -35.0278 -30.7458 -20.0626 -18.4416 -16.9552 -16.8789 -16.7279
   -13.1269 -10.4779  -6.5091  -1.7798  -1.2922   0.7934   1.6127   4.5134
     4.8725   7.9574   8.7636   9.0393

          k = 0.1667 0.3849 0.0000 (  1860 PWs)   bands (ev):

   -37.4995 -34.9439 -31.1312 -19.8643 -17.4138 -17.2909 -17.0795 -15.9104
   -11.2924  -9.9415  -5.6873  -2.0917  -0.6489   2.2476   2.8842   3.1091
     3.5214   6.2664   7.9796   8.8973

          k = 0.1667 0.4811 0.0000 (  1855 PWs)   bands (ev):

   -37.9517 -34.9229 -31.3129 -19.7873 -17.7399 -17.5878 -16.0630 -15.1259
   -12.1622  -6.6667  -4.8451  -2.6560  -0.0239   1.3367   1.9457   3.4948
     4.4539   4.8503   6.1471   7.4304

          k = 0.1667 0.5774 0.0000 (  1848 PWs)   bands (ev):

   -38.1092 -34.9234 -31.3561 -19.7314 -17.7845 -17.6985 -15.6841 -14.5822
   -12.6335  -4.6119  -4.2717  -3.0789  -0.2011   0.2717   1.3565   4.0766
     4.2938   5.6278   5.6623   6.1809

          k = 0.2500 0.4330 0.0000 (  1856 PWs)   bands (ev):

   -38.1061 -34.4356 -31.7114 -19.7988 -17.7283 -17.5993 -15.8016 -15.1403
   -12.1071  -7.1091  -4.8991  -2.5300  -0.1648   1.8339   1.9753   3.3731
     4.3205   5.1905   5.2350   7.6390

          k = 0.2500 0.5292 0.0000 (  1855 PWs)   bands (ev):

   -38.4274 -34.0378 -32.1510 -19.7467 -17.8750 -17.7797 -15.0238 -14.4119
   -12.9277  -4.3654  -4.1401  -3.0551  -0.1709  -0.0771   1.7426   3.5767
     4.3757   4.5242   5.2375   6.4800

          k = 0.3333 0.5774 0.0000 (  1860 PWs)   bands (ev):

   -38.5912 -33.0903 -33.0903 -19.7400 -17.8769 -17.8769 -14.5883 -13.6916
   -13.6916  -3.5273  -3.5273  -2.1422  -2.1422  -0.2750   2.4439   2.4439
     4.0160   5.1545   5.1545   6.1022

     the Fermi energy is     4.3299 ev

!    total energy              =     -32.92593213 Ry
     estimated scf accuracy    <          3.2E-09 Ry
     smearing contrib. (-TS)   =      -0.00140741 Ry
     internal energy E=F+TS    =     -32.92452472 Ry

     The total energy is F=E-TS. E is the sum of the following terms:
     one-electron contribution =   -2290.33758824 Ry
     hartree contribution      =    1157.45005252 Ry
     xc contribution           =     -48.85080879 Ry
     ewald contribution        =    1148.81381978 Ry

     convergence has been achieved in  36 iterations

     negative rho (up, down):  2.425E-02 0.000E+00

     Forces acting on atoms (cartesian axes, Ry/au):

     atom    1 type  1   force =     0.00000000    0.00000000  -24.86122178
     atom    2 type  1   force =     0.00000000    0.00000000  -24.86122178
     atom    3 type  1   force =     0.00000000   -0.00000000    0.07337173
     atom    4 type  1   force =     0.00000000    0.00000000    0.07337173
     atom    5 type  1   force =    -0.00000000    0.00000000   -0.07445106
     atom    6 type  1   force =     0.00000000    0.00000000   -0.07445106
     atom    7 type  1   force =     0.00000000    0.00000000   24.86230111
     atom    8 type  1   force =     0.00000000    0.00000000   24.86230111

     Total force =    49.723743     Total SCF correction =     0.000224


     Computing stress (Cartesian axis) and pressure


     negative rho (up, down):  2.425E-02 0.000E+00
          total   stress  (Ry/bohr**3)                   (kbar)     P=    13431.64
   0.01827270   0.00000000   0.00000000         2688.01        0.00        0.00
   0.00000000   0.01827270  -0.00000000            0.00     2688.01       -0.00
   0.00000000  -0.00000000   0.23737394            0.00       -0.00    34918.91


     Writing all to output data dir /home/rfa/Skripsi/DFT/dft-graphene/tmp/gr-aa-4L.save/ :
     XML data file, charge density, pseudopotentials, collected wavefunctions

     init_run     :      0.50s CPU      0.57s WALL (       1 calls)
     electrons    :     32.33s CPU     17.21s WALL (       1 calls)
     forces       :      0.07s CPU      0.03s WALL (       1 calls)
     stress       :      0.19s CPU      0.11s WALL (       1 calls)

     Called by init_run:
     wfcinit      :      0.29s CPU      0.16s WALL (       1 calls)
     potinit      :      0.00s CPU      0.01s WALL (       1 calls)
     hinit0       :      0.19s CPU      0.39s WALL (       1 calls)

     Called by electrons:
     c_bands      :     28.59s CPU     15.20s WALL (      36 calls)
     sum_band     :      3.18s CPU      1.69s WALL (      36 calls)
     v_of_rho     :      0.22s CPU      0.12s WALL (      37 calls)
     newd         :      0.19s CPU      0.12s WALL (      37 calls)
     mix_rho      :      0.10s CPU      0.05s WALL (      36 calls)

     Called by c_bands:
     init_us_2    :      0.50s CPU      0.27s WALL (    1425 calls)
     cegterg      :     27.53s CPU     14.57s WALL (     684 calls)

     Called by *egterg:
     cdiaghg      :      4.06s CPU      2.09s WALL (    3650 calls)
     h_psi        :     19.43s CPU     10.31s WALL (    3669 calls)
     s_psi        :      0.63s CPU      0.34s WALL (    3669 calls)
     g_psi        :      0.15s CPU      0.08s WALL (    2966 calls)

     Called by h_psi:
     h_psi:calbec :      2.23s CPU      1.20s WALL (    3669 calls)
     vloc_psi     :     15.65s CPU      8.31s WALL (    3669 calls)
     add_vuspsi   :      1.32s CPU      0.67s WALL (    3669 calls)

     General routines
     calbec       :      2.61s CPU      1.41s WALL (    4676 calls)
     fft          :      0.29s CPU      0.43s WALL (     432 calls)
     ffts         :      0.01s CPU      0.01s WALL (      36 calls)
     fftw         :     15.80s CPU      8.32s WALL (  104278 calls)

     Parallel routines

     PWSCF        :     33.17s CPU     18.21s WALL


   This run was terminated on:  14:40: 2  16Apr2025            

=------------------------------------------------------------------------------=
   JOB DONE.
=------------------------------------------------------------------------------=
