
     Program PWSCF v.7.4.1 starts on 16Apr2025 at 14:39:14 

     This program is part of the open-source Quantum ESPRESSO suite
     for quantum simulation of materials; please cite
         "P. Giannozzi et al., J. Phys.:Condens. Matter 21 395502 (2009);
         "P. Giannozzi et al., J. Phys.:Condens. Matter 29 465901 (2017);
         "P. Giannozzi et al., J. Chem. Phys. 152 154105 (2020);
          URL http://www.quantum-espresso.org", 
     in publications or presentations arising from this work. More details at
     http://www.quantum-espresso.org/quote

     Parallel version (MPI), running on     7 processors

     MPI processes distributed on     1 nodes
     13593 MiB available memory on the printing compute node when the environment starts

     Waiting for input...
     Reading input from standard input

     Current dimensions of program PWSCF are:
     Max number of different atomic species (ntypx) = 10
     Max number of k-points (npk) =  40000
     Max angular momentum in pseudopotentials (lmaxx) =  4

     R & G space division:  proc/nbgrp/npool/nimage =       7
     Subspace diagonalization in iterative solution of the eigenvalue problem:
     a serial algorithm will be used


     Parallelization info
     --------------------
     sticks:   dense  smooth     PW     G-vecs:    dense   smooth      PW
     Min          21      21      7                 1209     1209     253
     Max          22      22      8                 1218     1218     266
     Sum         151     151     55                 8507     8507    1811

     Using Slab Decomposition



     bravais-lattice index     =            4
     lattice parameter (alat)  =       4.6561  a.u.
     unit-cell volume          =     532.1899 (a.u.)^3
     number of atoms/cell      =            8
     number of atomic types    =            1
     number of electrons       =        32.00
     number of Kohn-Sham states=           20
     kinetic-energy cutoff     =      24.0000  Ry
     charge density cutoff     =      96.0000  Ry
     scf convergence threshold =      1.0E-08
     mixing beta               =       0.7000
     number of iterations used =            8  plain     mixing
     Exchange-correlation= PBE
                           (   1   4   3   4   0   0   0)

     celldm(1)=   4.656107  celldm(2)=   0.000000  celldm(3)=   6.087896
     celldm(4)=   0.000000  celldm(5)=   0.000000  celldm(6)=   0.000000

     crystal axes: (cart. coord. in units of alat)
               a(1) = (   1.000000   0.000000   0.000000 )  
               a(2) = (  -0.500000   0.866025   0.000000 )  
               a(3) = (   0.000000   0.000000   6.087896 )  

     reciprocal axes: (cart. coord. in units 2 pi/alat)
               b(1) = (  1.000000  0.577350 -0.000000 )  
               b(2) = (  0.000000  1.154701  0.000000 )  
               b(3) = (  0.000000 -0.000000  0.164260 )  


     PseudoPot. # 1 for C  read from file:
     /home/rfa/Skripsi/DFT/dft-graphene/pseudo/C.pbe-n-rrkjus_psl.0.1.UPF
     MD5 check sum: 96a6a315177d77e6c95bf6fd3870f9e3
     Pseudo is Ultrasoft + core correction, Zval =  4.0
     Generated using &quot;atomic&quot; code by A. Dal Corso  v.6.3MaX
     Using radial grid of 1073 points,  4 beta functions with: 
                l(1) =   0
                l(2) =   0
                l(3) =   1
                l(4) =   1
     Q(r) pseudized with 0 coefficients 


     atomic species   valence    mass     pseudopotential
     C                 4.00    12.01070     C ( 1.00)

     12 Sym. Ops. (no inversion) found



   Cartesian axes

     site n.     atom                  positions (alat units)
         1        C      tau(   1) = (   0.0000000   0.5773503   3.0439478  )
         2        C      tau(   2) = (   0.5000000   0.2886751   3.0439478  )
         3        C      tau(   3) = (   0.0000000   0.5773503   3.2468777  )
         4        C      tau(   4) = (   0.5000000   0.2886751   3.2468777  )
         5        C      tau(   5) = (   0.0000000   0.5773503   3.4498075  )
         6        C      tau(   6) = (   0.5000000   0.2886751   3.4498075  )
         7        C      tau(   7) = (   0.0000000   0.5773503   3.6527374  )
         8        C      tau(   8) = (   0.5000000   0.2886751   3.6527374  )

     number of k points=    19  Marzari-Vanderbilt smearing, width (Ry)=  0.0200
                       cart. coord. in units 2pi/alat
        k(    1) = (   0.0000000   0.0000000   0.0000000), wk =   0.0138889
        k(    2) = (   0.0000000   0.0962250   0.0000000), wk =   0.0833333
        k(    3) = (   0.0000000   0.1924501   0.0000000), wk =   0.0833333
        k(    4) = (   0.0000000   0.2886751   0.0000000), wk =   0.0833333
        k(    5) = (   0.0000000   0.3849002   0.0000000), wk =   0.0833333
        k(    6) = (   0.0000000   0.4811252   0.0000000), wk =   0.0833333
        k(    7) = (   0.0000000  -0.5773503   0.0000000), wk =   0.0416667
        k(    8) = (   0.0833333   0.1443376   0.0000000), wk =   0.0833333
        k(    9) = (   0.0833333   0.2405626   0.0000000), wk =   0.1666667
        k(   10) = (   0.0833333   0.3367877   0.0000000), wk =   0.1666667
        k(   11) = (   0.0833333   0.4330127   0.0000000), wk =   0.1666667
        k(   12) = (   0.0833333   0.5292377   0.0000000), wk =   0.1666667
        k(   13) = (   0.1666667   0.2886751   0.0000000), wk =   0.0833333
        k(   14) = (   0.1666667   0.3849002   0.0000000), wk =   0.1666667
        k(   15) = (   0.1666667   0.4811252   0.0000000), wk =   0.1666667
        k(   16) = (   0.1666667   0.5773503   0.0000000), wk =   0.0833333
        k(   17) = (   0.2500000   0.4330127   0.0000000), wk =   0.0833333
        k(   18) = (   0.2500000   0.5292377   0.0000000), wk =   0.1666667
        k(   19) = (   0.3333333   0.5773503   0.0000000), wk =   0.0277778

     Dense  grid:     8507 G-vectors     FFT dimensions: (  15,  15,  90)

     Estimated max dynamical RAM per process >       3.22 MB

     Estimated total dynamical RAM >      22.51 MB

     Check: negative core charge=   -0.000169

     Initial potential from superposition of free atoms

     starting charge      31.9997, renormalised to      32.0000

     negative rho (up, down):  1.147E-02 0.000E+00
     Starting wfcs are   32 randomized atomic wfcs

     total cpu time spent up to now is        0.4 secs

     per-process dynamical memory:     9.1 Mb

     Self-consistent Calculation

     iteration #  1     ecut=    24.00 Ry     beta= 0.70
     Davidson diagonalization with overlap
     ethr =  1.00E-02,  avg # of iterations =  7.1

     negative rho (up, down):  1.638E-01 0.000E+00

     total cpu time spent up to now is        0.8 secs

     total energy              =     -15.00874299 Ry
     estimated scf accuracy    <      33.76854175 Ry

     iteration #  2     ecut=    24.00 Ry     beta= 0.70
     Davidson diagonalization with overlap
     ethr =  1.00E-02,  avg # of iterations = 11.8

     negative rho (up, down):  5.662E-04 0.000E+00

     total cpu time spent up to now is        1.3 secs

     total energy              =      31.47069676 Ry
     estimated scf accuracy    <     281.29955473 Ry

     iteration #  3     ecut=    24.00 Ry     beta= 0.70
     Davidson diagonalization with overlap
     ethr =  1.00E-02,  avg # of iterations = 10.4

     negative rho (up, down):  4.398E-03 0.000E+00

     total cpu time spent up to now is        1.8 secs

     total energy              =     -29.27198680 Ry
     estimated scf accuracy    <       4.74824338 Ry

     iteration #  4     ecut=    24.00 Ry     beta= 0.70
     Davidson diagonalization with overlap
     ethr =  1.00E-02,  avg # of iterations =  2.0

     negative rho (up, down):  1.104E-02 0.000E+00

     total cpu time spent up to now is        1.9 secs

     total energy              =     -28.82065499 Ry
     estimated scf accuracy    <       3.06251464 Ry

     iteration #  5     ecut=    24.00 Ry     beta= 0.70
     Davidson diagonalization with overlap
     ethr =  9.57E-03,  avg # of iterations =  1.2

     negative rho (up, down):  1.605E-02 0.000E+00

     total cpu time spent up to now is        2.1 secs

     total energy              =     -28.55539072 Ry
     estimated scf accuracy    <       2.01194439 Ry

     iteration #  6     ecut=    24.00 Ry     beta= 0.70
     Davidson diagonalization with overlap
     ethr =  6.29E-03,  avg # of iterations =  1.0

     negative rho (up, down):  1.800E-02 0.000E+00

     total cpu time spent up to now is        2.2 secs

     total energy              =     -28.47166279 Ry
     estimated scf accuracy    <       1.57857676 Ry

     iteration #  7     ecut=    24.00 Ry     beta= 0.70
     Davidson diagonalization with overlap
     ethr =  4.93E-03,  avg # of iterations =  1.6

     negative rho (up, down):  2.661E-02 0.000E+00

     total cpu time spent up to now is        2.4 secs

     total energy              =     -28.15763545 Ry
     estimated scf accuracy    <       1.44407757 Ry

     iteration #  8     ecut=    24.00 Ry     beta= 0.70
     Davidson diagonalization with overlap
     ethr =  4.51E-03,  avg # of iterations =  1.2

     negative rho (up, down):  1.189E-01 0.000E+00

     total cpu time spent up to now is        2.5 secs

     total energy              =     -27.43345951 Ry
     estimated scf accuracy    <       0.99452470 Ry

     iteration #  9     ecut=    24.00 Ry     beta= 0.70
     Davidson diagonalization with overlap
     ethr =  3.11E-03,  avg # of iterations =  3.6

     negative rho (up, down):  1.287E-01 0.000E+00

     total cpu time spent up to now is        2.7 secs

     total energy              =     -27.49955162 Ry
     estimated scf accuracy    <       0.06875930 Ry

     iteration # 10     ecut=    24.00 Ry     beta= 0.70
     Davidson diagonalization with overlap
     ethr =  2.15E-04,  avg # of iterations =  3.9

     negative rho (up, down):  2.173E-01 0.000E+00

     total cpu time spent up to now is        2.9 secs

     total energy              =     -27.46015789 Ry
     estimated scf accuracy    <       0.05073154 Ry

     iteration # 11     ecut=    24.00 Ry     beta= 0.70
     Davidson diagonalization with overlap
     ethr =  1.59E-04,  avg # of iterations =  7.7

     negative rho (up, down):  1.786E-01 0.000E+00

     total cpu time spent up to now is        3.2 secs

     total energy              =     -27.39671415 Ry
     estimated scf accuracy    <       0.22805530 Ry

     iteration # 12     ecut=    24.00 Ry     beta= 0.70
     Davidson diagonalization with overlap
     ethr =  1.59E-04,  avg # of iterations =  4.0

     negative rho (up, down):  1.745E-01 0.000E+00

     total cpu time spent up to now is        3.4 secs

     total energy              =     -27.46863276 Ry
     estimated scf accuracy    <       0.00209104 Ry

     iteration # 13     ecut=    24.00 Ry     beta= 0.70
     Davidson diagonalization with overlap
     ethr =  6.53E-06,  avg # of iterations =  7.1

     negative rho (up, down):  1.822E-01 0.000E+00

     total cpu time spent up to now is        3.6 secs

     total energy              =     -27.46638422 Ry
     estimated scf accuracy    <       0.00444129 Ry

     iteration # 14     ecut=    24.00 Ry     beta= 0.70
     Davidson diagonalization with overlap
     ethr =  6.53E-06,  avg # of iterations =  4.1

     negative rho (up, down):  1.807E-01 0.000E+00

     total cpu time spent up to now is        3.9 secs

     total energy              =     -27.46694584 Ry
     estimated scf accuracy    <       0.00116022 Ry

     iteration # 15     ecut=    24.00 Ry     beta= 0.70
     Davidson diagonalization with overlap
     ethr =  3.63E-06,  avg # of iterations =  1.9

     negative rho (up, down):  1.824E-01 0.000E+00

     total cpu time spent up to now is        4.0 secs

     total energy              =     -27.46662198 Ry
     estimated scf accuracy    <       0.00165969 Ry

     iteration # 16     ecut=    24.00 Ry     beta= 0.70
     Davidson diagonalization with overlap
     ethr =  3.63E-06,  avg # of iterations =  2.3

     negative rho (up, down):  1.831E-01 0.000E+00

     total cpu time spent up to now is        4.2 secs

     total energy              =     -27.46647599 Ry
     estimated scf accuracy    <       0.00115518 Ry

     iteration # 17     ecut=    24.00 Ry     beta= 0.70
     Davidson diagonalization with overlap
     ethr =  3.61E-06,  avg # of iterations =  1.9

     negative rho (up, down):  1.841E-01 0.000E+00

     total cpu time spent up to now is        4.3 secs

     total energy              =     -27.46630880 Ry
     estimated scf accuracy    <       0.00097608 Ry

     iteration # 18     ecut=    24.00 Ry     beta= 0.70
     Davidson diagonalization with overlap
     ethr =  3.05E-06,  avg # of iterations =  2.8

     negative rho (up, down):  1.851E-01 0.000E+00

     total cpu time spent up to now is        4.5 secs

     total energy              =     -27.46614231 Ry
     estimated scf accuracy    <       0.00076519 Ry

     iteration # 19     ecut=    24.00 Ry     beta= 0.70
     Davidson diagonalization with overlap
     ethr =  2.39E-06,  avg # of iterations =  2.5

     negative rho (up, down):  1.894E-01 0.000E+00

     total cpu time spent up to now is        4.7 secs

     total energy              =     -27.46571399 Ry
     estimated scf accuracy    <       0.00056366 Ry

     iteration # 20     ecut=    24.00 Ry     beta= 0.70
     Davidson diagonalization with overlap
     ethr =  1.76E-06,  avg # of iterations =  5.0

     negative rho (up, down):  1.916E-01 0.000E+00

     total cpu time spent up to now is        4.9 secs

     total energy              =     -27.46566823 Ry
     estimated scf accuracy    <       0.00007203 Ry

     iteration # 21     ecut=    24.00 Ry     beta= 0.70
     Davidson diagonalization with overlap
     c_bands:  1 eigenvalues not converged
     ethr =  2.25E-07,  avg # of iterations =  5.5

     negative rho (up, down):  1.916E-01 0.000E+00

     total cpu time spent up to now is        5.1 secs

     total energy              =     -27.46567570 Ry
     estimated scf accuracy    <       0.00000003 Ry

     iteration # 22     ecut=    24.00 Ry     beta= 0.70
     Davidson diagonalization with overlap
     ethr =  1.01E-10,  avg # of iterations =  7.8

     negative rho (up, down):  1.916E-01 0.000E+00

     total cpu time spent up to now is        5.5 secs

     total energy              =     -27.46567612 Ry
     estimated scf accuracy    <       0.00000020 Ry

     iteration # 23     ecut=    24.00 Ry     beta= 0.70
     Davidson diagonalization with overlap
     ethr =  1.01E-10,  avg # of iterations =  1.0

     negative rho (up, down):  1.916E-01 0.000E+00

     total cpu time spent up to now is        5.7 secs

     total energy              =     -27.46567612 Ry
     estimated scf accuracy    <       0.00000024 Ry

     iteration # 24     ecut=    24.00 Ry     beta= 0.70
     Davidson diagonalization with overlap
     ethr =  1.01E-10,  avg # of iterations =  2.2

     negative rho (up, down):  1.916E-01 0.000E+00

     total cpu time spent up to now is        5.8 secs

     total energy              =     -27.46567609 Ry
     estimated scf accuracy    <       0.00000041 Ry

     iteration # 25     ecut=    24.00 Ry     beta= 0.70
     Davidson diagonalization with overlap
     ethr =  1.01E-10,  avg # of iterations =  5.1

     negative rho (up, down):  1.916E-01 0.000E+00

     total cpu time spent up to now is        6.1 secs

     total energy              =     -27.46567616 Ry
     estimated scf accuracy    <       0.00000001 Ry

     iteration # 26     ecut=    24.00 Ry     beta= 0.70
     Davidson diagonalization with overlap
     ethr =  3.48E-11,  avg # of iterations =  3.5

     negative rho (up, down):  1.916E-01 0.000E+00

     total cpu time spent up to now is        6.3 secs

     End of self-consistent calculation

          k = 0.0000 0.0000 0.0000 (  1077 PWs)   bands (ev):

   -38.6121 -38.6121 -29.6823 -25.5552 -25.5552 -19.1026 -17.7551 -17.7551
   -13.4857  -6.8821  -6.8777  -5.0905  -4.4878  -4.4878   2.9139   4.8926
     5.2921   6.5759   7.2551   7.2551

          k = 0.0000 0.0962 0.0000 (  1089 PWs)   bands (ev):

   -38.7714 -38.6450 -30.6370 -25.2011 -24.0262 -19.1656 -17.9401 -17.8517
   -13.7935  -7.8498  -6.9763  -4.9912  -4.1007  -4.0288   1.9057   5.1204
     5.5127   6.5637   6.7982   8.2349

          k = 0.0000 0.1925 0.0000 (  1078 PWs)   bands (ev):

   -39.1692 -38.7541 -31.8321 -24.2404 -20.7009 -19.3431 -18.3963 -17.8947
   -13.5926  -8.0172  -6.6825  -4.6550  -3.0330  -2.6205   1.6624   5.0952
     5.8036   6.1895   6.2159   7.4669

          k = 0.0000 0.2887 0.0000 (  1064 PWs)   bands (ev):

   -39.6377 -38.9471 -32.6085 -22.5663 -19.7777 -18.9320 -17.6731 -17.1164
   -12.8615  -8.3701  -6.0389  -4.0999  -1.3790  -0.6316   1.1550   3.1919
     5.4691   6.5471   6.9450   7.3167

          k = 0.0000 0.3849 0.0000 (  1044 PWs)   bands (ev):

   -40.0402 -39.1770 -32.8907 -20.9642 -20.2569 -19.4090 -17.2655 -13.5988
   -11.0502  -8.7564  -4.9391  -3.2971   0.0573   0.0665   1.3350   2.3320
     3.7778   4.8225   8.5357   8.8780

          k = 0.0000 0.4811 0.0000 (  1052 PWs)   bands (ev):

   -40.3644 -39.6673 -33.0842 -20.6176 -20.4612 -19.7207 -16.8170 -11.4436
    -9.1128  -8.7559  -3.9874  -2.3494  -0.7216  -0.3459   0.9791   1.1924
     4.4035   5.1025   7.3157   9.9109

          k = 0.0000-0.5774 0.0000 (  1062 PWs)   bands (ev):

   -40.4770 -39.8176 -33.0760 -20.7183 -20.2089 -19.8291 -16.4771 -11.2007
    -9.3219  -7.0012  -3.8761  -1.6541  -1.3168  -1.2370  -0.9816   1.5791
     4.2366   6.1730   7.4949   8.0037

          k = 0.0833 0.1443 0.0000 (  1077 PWs)   bands (ev):

   -39.0934 -38.6621 -31.5785 -24.4774 -21.7431 -19.2385 -18.1088 -18.0367
   -13.4075  -7.7192  -6.6756  -4.7630  -3.2996  -2.9823   1.9489   5.5758
     5.6716   5.9663   6.2582   7.2446

          k = 0.0833 0.2406 0.0000 (  1065 PWs)   bands (ev):

   -39.6033 -38.6963 -32.4167 -23.1976 -19.7204 -18.4757 -18.3090 -17.9747
   -13.1340  -7.9888  -6.2721  -4.3157  -2.0148  -1.4353   1.5081   4.1119
     5.2031   6.4865   6.8665   7.9887

          k = 0.0833 0.3368 0.0000 (  1061 PWs)   bands (ev):

   -40.1513 -38.7836 -33.0020 -21.7451 -20.2955 -18.9186 -17.6379 -15.0340
   -12.2663  -8.6249  -5.5151  -3.6485  -0.3853   0.2279   1.2233   2.2204
     3.9538   5.7320   7.8529   8.2099

          k = 0.0833 0.4330 0.0000 (  1047 PWs)   bands (ev):

   -40.6900 -38.8559 -33.3411 -20.7265 -20.1796 -19.2274 -17.1659 -12.1722
    -9.8554  -8.8000  -4.2983  -2.7819  -0.2611   0.4648   1.1286   1.9345
     3.7252   4.4980   7.8441   9.6726

          k = 0.0833 0.5292 0.0000 (  1043 PWs)   bands (ev):

   -40.9648 -39.0569 -33.2621 -20.9916 -19.7769 -19.4144 -16.6837 -10.9143
    -9.1339  -7.3429  -3.5656  -1.7890  -1.1041  -1.0639  -0.2349   1.8941
     4.0277   5.8485   6.5197   8.9030

          k = 0.1667 0.2887 0.0000 (  1057 PWs)   bands (ev):

   -40.2555 -38.5024 -33.1084 -21.9651 -20.3625 -18.4339 -18.0343 -15.5948
   -12.2747  -8.3095  -5.4494  -3.7412  -0.6035   0.3459   0.9828   2.9958
     3.3416   6.3718   7.6257   7.9899

          k = 0.1667 0.3849 0.0000 (  1060 PWs)   bands (ev):

   -40.9662 -38.2876 -33.8076 -20.9115 -20.5363 -18.5876 -17.6915 -12.9757
   -10.2728  -8.4478  -4.4796  -3.0318   0.1419   1.2390   1.3358   1.8567
     2.5944   4.7378   7.7188   9.2175

          k = 0.1667 0.4811 0.0000 (  1048 PWs)   bands (ev):

   -41.4125 -38.1201 -34.0409 -21.3077 -19.3558 -18.7595 -17.2852 -11.1123
    -8.7015  -8.1543  -3.6537  -2.1856  -0.5879  -0.3819   0.2799   2.5685
     3.7547   5.0842   5.0995   9.7851

          k = 0.1667 0.5774 0.0000 (  1040 PWs)   bands (ev):

   -41.5680 -37.9659 -34.0642 -21.4499 -18.7784 -18.5480 -17.0664 -10.5094
    -8.9458  -6.2661  -3.1167  -1.8051  -1.6661  -1.1124  -0.5540   3.1173
     3.2797   4.2060   7.1872   8.0154

          k = 0.2500 0.4330 0.0000 (  1052 PWs)   bands (ev):

   -41.5702 -37.6447 -34.4777 -21.4209 -19.1129 -18.2658 -17.6940 -11.2574
    -8.5465  -8.4875  -3.8235  -2.3496  -0.3414   0.0940   0.3108   3.2564
     3.6612   4.2420   4.7038  10.2490

          k = 0.2500 0.5292 0.0000 (  1041 PWs)   bands (ev):

   -41.8808 -37.0268 -34.9600 -21.7063 -18.2120 -17.9588 -17.5254 -10.3180
    -9.0394  -6.0169  -2.9171  -1.9967  -1.8528  -1.2430  -0.0152   2.4979
     3.0034   4.4069   6.2090   8.4600

          k = 0.3333 0.5774 0.0000 (  1050 PWs)   bands (ev):

   -42.0442 -36.0553 -36.0553 -21.8462 -17.9216 -17.9216 -17.7089  -9.7053
    -9.7053  -3.8839  -3.8839  -2.1296  -2.1296  -2.0917   0.9278   0.9278
     2.5278   5.1272   7.0343   7.0343

     the Fermi energy is     3.3552 ev

!    total energy              =     -27.46567622 Ry
     estimated scf accuracy    <          9.7E-09 Ry
     smearing contrib. (-TS)   =       0.00014384 Ry
     internal energy E=F+TS    =     -27.46582006 Ry

     The total energy is F=E-TS. E is the sum of the following terms:
     one-electron contribution =   -2278.01484099 Ry
     hartree contribution      =    1149.85740623 Ry
     xc contribution           =     -48.12220523 Ry
     ewald contribution        =    1148.81381993 Ry

     convergence has been achieved in  26 iterations

     negative rho (up, down):  1.916E-01 0.000E+00

     Forces acting on atoms (cartesian axes, Ry/au):

     atom    1 type  1   force =    -0.00000000   -0.00000000  -26.86448532
     atom    2 type  1   force =    -0.00000000    0.00000000  -26.86448532
     atom    3 type  1   force =     0.00000000    0.00000000   -1.61503901
     atom    4 type  1   force =     0.00000000    0.00000000   -1.61503901
     atom    5 type  1   force =     0.00000000    0.00000000    1.61503437
     atom    6 type  1   force =     0.00000000    0.00000000    1.61503437
     atom    7 type  1   force =    -0.00000000   -0.00000000   26.86448997
     atom    8 type  1   force =    -0.00000000   -0.00000000   26.86448997

     Total force =    53.825980     Total SCF correction =     0.000431


     Computing stress (Cartesian axis) and pressure


     negative rho (up, down):  1.916E-01 0.000E+00
          total   stress  (Ry/bohr**3)                   (kbar)     P=    11957.59
  -0.00205058   0.00000000  -0.00000000         -301.65        0.00       -0.00
   0.00000000  -0.00205058   0.00000000            0.00     -301.65        0.00
  -0.00000000   0.00000000   0.24795928           -0.00        0.00    36476.07


     Writing all to output data dir /home/rfa/Skripsi/DFT/dft-graphene/tmp/gr-aa-4L.save/ :
     XML data file, charge density, pseudopotentials, collected wavefunctions

     init_run     :      0.26s CPU      0.31s WALL (       1 calls)
     electrons    :     10.69s CPU      5.92s WALL (       1 calls)
     forces       :      0.04s CPU      0.02s WALL (       1 calls)
     stress       :      0.13s CPU      0.07s WALL (       1 calls)

     Called by init_run:
     wfcinit      :      0.14s CPU      0.08s WALL (       1 calls)
     potinit      :      0.00s CPU      0.00s WALL (       1 calls)
     hinit0       :      0.11s CPU      0.21s WALL (       1 calls)

     Called by electrons:
     c_bands      :      9.43s CPU      5.22s WALL (      26 calls)
     sum_band     :      1.03s CPU      0.58s WALL (      26 calls)
     v_of_rho     :      0.09s CPU      0.05s WALL (      27 calls)
     newd         :      0.06s CPU      0.04s WALL (      27 calls)
     mix_rho      :      0.04s CPU      0.02s WALL (      26 calls)

     Called by c_bands:
     init_us_2    :      0.19s CPU      0.10s WALL (    1045 calls)
     cegterg      :      8.93s CPU      4.90s WALL (     494 calls)

     Called by *egterg:
     cdiaghg      :      2.50s CPU      1.31s WALL (    2549 calls)
     h_psi        :      5.12s CPU      2.88s WALL (    2568 calls)
     s_psi        :      0.22s CPU      0.11s WALL (    2568 calls)
     g_psi        :      0.06s CPU      0.03s WALL (    2055 calls)

     Called by h_psi:
     h_psi:calbec :      0.77s CPU      0.43s WALL (    2568 calls)
     vloc_psi     :      3.96s CPU      2.24s WALL (    2568 calls)
     add_vuspsi   :      0.30s CPU      0.16s WALL (    2568 calls)

     General routines
     calbec       :      0.95s CPU      0.53s WALL (    3385 calls)
     fft          :      0.14s CPU      0.22s WALL (     322 calls)
     ffts         :      0.00s CPU      0.00s WALL (      26 calls)
     fftw         :      3.86s CPU      2.15s WALL (   68026 calls)

     Parallel routines

     PWSCF        :     11.24s CPU      6.56s WALL


   This run was terminated on:  14:39:21  16Apr2025            

=------------------------------------------------------------------------------=
   JOB DONE.
=------------------------------------------------------------------------------=
