
     Program PWSCF v.7.4.1 starts on 16Apr2025 at 14:41:26 

     This program is part of the open-source Quantum ESPRESSO suite
     for quantum simulation of materials; please cite
         "P. Giannozzi et al., J. Phys.:Condens. Matter 21 395502 (2009);
         "P. Giannozzi et al., J. Phys.:Condens. Matter 29 465901 (2017);
         "P. Giannozzi et al., J. Chem. Phys. 152 154105 (2020);
          URL http://www.quantum-espresso.org", 
     in publications or presentations arising from this work. More details at
     http://www.quantum-espresso.org/quote

     Parallel version (MPI), running on     7 processors

     MPI processes distributed on     1 nodes
     13566 MiB available memory on the printing compute node when the environment starts

     Waiting for input...
     Reading input from standard input

     Current dimensions of program PWSCF are:
     Max number of different atomic species (ntypx) = 10
     Max number of k-points (npk) =  40000
     Max angular momentum in pseudopotentials (lmaxx) =  4

     R & G space division:  proc/nbgrp/npool/nimage =       7
     Subspace diagonalization in iterative solution of the eigenvalue problem:
     a serial algorithm will be used


     Parallelization info
     --------------------
     sticks:   dense  smooth     PW     G-vecs:    dense   smooth      PW
     Min          44      44     15                 4122     4122     733
     Max          45      45     16                 4159     4159     742
     Sum         313     313    109                29029    29029    5163

     Using Slab Decomposition



     bravais-lattice index     =            4
     lattice parameter (alat)  =       4.6561  a.u.
     unit-cell volume          =     532.1899 (a.u.)^3
     number of atoms/cell      =            8
     number of atomic types    =            1
     number of electrons       =        32.00
     number of Kohn-Sham states=           20
     kinetic-energy cutoff     =      55.0000  Ry
     charge density cutoff     =     220.0000  Ry
     scf convergence threshold =      1.0E-08
     mixing beta               =       0.7000
     number of iterations used =            8  plain     mixing
     Exchange-correlation= PBE
                           (   1   4   3   4   0   0   0)

     celldm(1)=   4.656107  celldm(2)=   0.000000  celldm(3)=   6.087896
     celldm(4)=   0.000000  celldm(5)=   0.000000  celldm(6)=   0.000000

     crystal axes: (cart. coord. in units of alat)
               a(1) = (   1.000000   0.000000   0.000000 )  
               a(2) = (  -0.500000   0.866025   0.000000 )  
               a(3) = (   0.000000   0.000000   6.087896 )  

     reciprocal axes: (cart. coord. in units 2 pi/alat)
               b(1) = (  1.000000  0.577350 -0.000000 )  
               b(2) = (  0.000000  1.154701  0.000000 )  
               b(3) = (  0.000000 -0.000000  0.164260 )  


     PseudoPot. # 1 for C  read from file:
     /home/rfa/Skripsi/DFT/dft-graphene/pseudo/C.pbe-n-rrkjus_psl.0.1.UPF
     MD5 check sum: 96a6a315177d77e6c95bf6fd3870f9e3
     Pseudo is Ultrasoft + core correction, Zval =  4.0
     Generated using &quot;atomic&quot; code by A. Dal Corso  v.6.3MaX
     Using radial grid of 1073 points,  4 beta functions with: 
                l(1) =   0
                l(2) =   0
                l(3) =   1
                l(4) =   1
     Q(r) pseudized with 0 coefficients 


     atomic species   valence    mass     pseudopotential
     C                 4.00    12.01070     C ( 1.00)

     12 Sym. Ops. (no inversion) found



   Cartesian axes

     site n.     atom                  positions (alat units)
         1        C      tau(   1) = (   0.0000000   0.5773503   3.0439478  )
         2        C      tau(   2) = (   0.5000000   0.2886751   3.0439478  )
         3        C      tau(   3) = (   0.0000000   0.5773503   3.2468777  )
         4        C      tau(   4) = (   0.5000000   0.2886751   3.2468777  )
         5        C      tau(   5) = (   0.0000000   0.5773503   3.4498075  )
         6        C      tau(   6) = (   0.5000000   0.2886751   3.4498075  )
         7        C      tau(   7) = (   0.0000000   0.5773503   3.6527374  )
         8        C      tau(   8) = (   0.5000000   0.2886751   3.6527374  )

     number of k points=    19  Marzari-Vanderbilt smearing, width (Ry)=  0.0200
                       cart. coord. in units 2pi/alat
        k(    1) = (   0.0000000   0.0000000   0.0000000), wk =   0.0138889
        k(    2) = (   0.0000000   0.0962250   0.0000000), wk =   0.0833333
        k(    3) = (   0.0000000   0.1924501   0.0000000), wk =   0.0833333
        k(    4) = (   0.0000000   0.2886751   0.0000000), wk =   0.0833333
        k(    5) = (   0.0000000   0.3849002   0.0000000), wk =   0.0833333
        k(    6) = (   0.0000000   0.4811252   0.0000000), wk =   0.0833333
        k(    7) = (   0.0000000  -0.5773503   0.0000000), wk =   0.0416667
        k(    8) = (   0.0833333   0.1443376   0.0000000), wk =   0.0833333
        k(    9) = (   0.0833333   0.2405626   0.0000000), wk =   0.1666667
        k(   10) = (   0.0833333   0.3367877   0.0000000), wk =   0.1666667
        k(   11) = (   0.0833333   0.4330127   0.0000000), wk =   0.1666667
        k(   12) = (   0.0833333   0.5292377   0.0000000), wk =   0.1666667
        k(   13) = (   0.1666667   0.2886751   0.0000000), wk =   0.0833333
        k(   14) = (   0.1666667   0.3849002   0.0000000), wk =   0.1666667
        k(   15) = (   0.1666667   0.4811252   0.0000000), wk =   0.1666667
        k(   16) = (   0.1666667   0.5773503   0.0000000), wk =   0.0833333
        k(   17) = (   0.2500000   0.4330127   0.0000000), wk =   0.0833333
        k(   18) = (   0.2500000   0.5292377   0.0000000), wk =   0.1666667
        k(   19) = (   0.3333333   0.5773503   0.0000000), wk =   0.0277778

     Dense  grid:    29029 G-vectors     FFT dimensions: (  24,  24, 135)

     Estimated max dynamical RAM per process >      10.68 MB

     Estimated total dynamical RAM >      74.74 MB

     Check: negative core charge=   -0.000002

     Initial potential from superposition of free atoms

     starting charge      31.9997, renormalised to      32.0000

     negative rho (up, down):  3.223E-04 0.000E+00
     Starting wfcs are   32 randomized atomic wfcs

     total cpu time spent up to now is        1.0 secs

     per-process dynamical memory:    13.4 Mb

     Self-consistent Calculation

     iteration #  1     ecut=    55.00 Ry     beta= 0.70
     Davidson diagonalization with overlap
     ethr =  1.00E-02,  avg # of iterations = 12.6

     negative rho (up, down):  8.094E-03 0.000E+00

     total cpu time spent up to now is        3.5 secs

     total energy              =     -16.60817280 Ry
     estimated scf accuracy    <      49.91401647 Ry

     iteration #  2     ecut=    55.00 Ry     beta= 0.70
     Davidson diagonalization with overlap
     c_bands:  1 eigenvalues not converged
     c_bands:  3 eigenvalues not converged
     c_bands:  1 eigenvalues not converged
     c_bands:  3 eigenvalues not converged
     c_bands:  3 eigenvalues not converged
     c_bands:  3 eigenvalues not converged
     c_bands:  1 eigenvalues not converged
     c_bands:  1 eigenvalues not converged
     c_bands:  2 eigenvalues not converged
     c_bands:  2 eigenvalues not converged
     c_bands:  2 eigenvalues not converged
     c_bands:  2 eigenvalues not converged
     ethr =  1.00E-02,  avg # of iterations = 19.8

     total cpu time spent up to now is        8.4 secs

     total energy              =      32.77701045 Ry
     estimated scf accuracy    <     283.33135445 Ry

     iteration #  3     ecut=    55.00 Ry     beta= 0.70
     Davidson diagonalization with overlap
     c_bands:  1 eigenvalues not converged
     c_bands:  1 eigenvalues not converged
     ethr =  1.00E-02,  avg # of iterations = 15.4

     total cpu time spent up to now is       11.9 secs

     total energy              =     -37.17841487 Ry
     estimated scf accuracy    <       7.04412065 Ry

     iteration #  4     ecut=    55.00 Ry     beta= 0.70
     Davidson diagonalization with overlap
     ethr =  1.00E-02,  avg # of iterations =  3.8

     total cpu time spent up to now is       12.9 secs

     total energy              =     -36.02356157 Ry
     estimated scf accuracy    <       4.32731215 Ry

     iteration #  5     ecut=    55.00 Ry     beta= 0.70
     Davidson diagonalization with overlap
     ethr =  1.00E-02,  avg # of iterations =  1.1

     total cpu time spent up to now is       13.8 secs

     total energy              =     -35.92047005 Ry
     estimated scf accuracy    <       2.21679768 Ry

     iteration #  6     ecut=    55.00 Ry     beta= 0.70
     Davidson diagonalization with overlap
     ethr =  6.93E-03,  avg # of iterations =  1.4

     total cpu time spent up to now is       14.7 secs

     total energy              =     -35.65852334 Ry
     estimated scf accuracy    <       1.98943951 Ry

     iteration #  7     ecut=    55.00 Ry     beta= 0.70
     Davidson diagonalization with overlap
     ethr =  6.22E-03,  avg # of iterations =  1.1

     total cpu time spent up to now is       15.6 secs

     total energy              =     -35.30524209 Ry
     estimated scf accuracy    <       1.47230815 Ry

     iteration #  8     ecut=    55.00 Ry     beta= 0.70
     Davidson diagonalization with overlap
     ethr =  4.60E-03,  avg # of iterations =  2.9

     total cpu time spent up to now is       16.6 secs

     total energy              =     -35.54762564 Ry
     estimated scf accuracy    <       0.81571626 Ry

     iteration #  9     ecut=    55.00 Ry     beta= 0.70
     Davidson diagonalization with overlap
     ethr =  2.55E-03,  avg # of iterations =  2.6

     total cpu time spent up to now is       17.6 secs

     total energy              =     -35.36035422 Ry
     estimated scf accuracy    <       1.00185307 Ry

     iteration # 10     ecut=    55.00 Ry     beta= 0.70
     Davidson diagonalization with overlap
     ethr =  2.55E-03,  avg # of iterations =  1.9

     total cpu time spent up to now is       18.3 secs

     total energy              =     -35.58768405 Ry
     estimated scf accuracy    <       0.66726421 Ry

     iteration # 11     ecut=    55.00 Ry     beta= 0.70
     Davidson diagonalization with overlap
     ethr =  2.09E-03,  avg # of iterations =  1.1

     negative rho (up, down):  7.363E-03 0.000E+00

     total cpu time spent up to now is       19.0 secs

     total energy              =     -34.82209241 Ry
     estimated scf accuracy    <       0.88805852 Ry

     iteration # 12     ecut=    55.00 Ry     beta= 0.70
     Davidson diagonalization with overlap
     c_bands:  2 eigenvalues not converged
     ethr =  2.09E-03,  avg # of iterations =  9.6

     negative rho (up, down):  1.427E-03 0.000E+00

     total cpu time spent up to now is       20.7 secs

     total energy              =     -35.08847349 Ry
     estimated scf accuracy    <       0.89011727 Ry

     iteration # 13     ecut=    55.00 Ry     beta= 0.70
     Davidson diagonalization with overlap
     ethr =  2.09E-03,  avg # of iterations =  1.6

     negative rho (up, down):  3.016E-03 0.000E+00

     total cpu time spent up to now is       21.6 secs

     total energy              =     -35.13728515 Ry
     estimated scf accuracy    <       0.38868653 Ry

     iteration # 14     ecut=    55.00 Ry     beta= 0.70
     Davidson diagonalization with overlap
     ethr =  1.21E-03,  avg # of iterations =  1.2

     negative rho (up, down):  1.357E-01 0.000E+00

     total cpu time spent up to now is       22.4 secs

     total energy              =     -35.44299956 Ry
     estimated scf accuracy    <       0.78243544 Ry

     iteration # 15     ecut=    55.00 Ry     beta= 0.70
     Davidson diagonalization with overlap
     c_bands:  2 eigenvalues not converged
     c_bands:  2 eigenvalues not converged
     c_bands:  2 eigenvalues not converged
     c_bands:  1 eigenvalues not converged
     ethr =  1.21E-03,  avg # of iterations = 13.0

     negative rho (up, down):  3.527E-02 0.000E+00

     total cpu time spent up to now is       24.3 secs

     total energy              =     -34.59820445 Ry
     estimated scf accuracy    <      33.18824397 Ry

     iteration # 16     ecut=    55.00 Ry     beta= 0.70
     Davidson diagonalization with overlap
     ethr =  1.21E-03,  avg # of iterations =  4.0

     negative rho (up, down):  5.463E-02 0.000E+00

     total cpu time spent up to now is       25.4 secs

     total energy              =     -35.36014209 Ry
     estimated scf accuracy    <       2.80670654 Ry

     iteration # 17     ecut=    55.00 Ry     beta= 0.70
     Davidson diagonalization with overlap
     ethr =  1.21E-03,  avg # of iterations =  1.0

     negative rho (up, down):  4.405E-06 0.000E+00

     total cpu time spent up to now is       26.1 secs

     total energy              =     -33.98620709 Ry
     estimated scf accuracy    <       7.12895490 Ry

     iteration # 18     ecut=    55.00 Ry     beta= 0.70
     Davidson diagonalization with overlap
     c_bands:  1 eigenvalues not converged
     c_bands:  2 eigenvalues not converged
     c_bands:  1 eigenvalues not converged
     ethr =  1.21E-03,  avg # of iterations = 12.6

     total cpu time spent up to now is       27.9 secs

     total energy              =     -35.11285261 Ry
     estimated scf accuracy    <       0.13537045 Ry

     iteration # 19     ecut=    55.00 Ry     beta= 0.70
     Davidson diagonalization with overlap
     c_bands:  1 eigenvalues not converged
     ethr =  4.23E-04,  avg # of iterations =  6.7

     total cpu time spent up to now is       28.9 secs

     total energy              =     -35.25328097 Ry
     estimated scf accuracy    <       0.13517698 Ry

     iteration # 20     ecut=    55.00 Ry     beta= 0.70
     Davidson diagonalization with overlap
     c_bands:  2 eigenvalues not converged
     c_bands:  3 eigenvalues not converged
     c_bands:  2 eigenvalues not converged
     c_bands:  3 eigenvalues not converged
     c_bands:  1 eigenvalues not converged
     c_bands:  1 eigenvalues not converged
     ethr =  4.22E-04,  avg # of iterations = 12.6

     total cpu time spent up to now is       30.8 secs

     total energy              =     -35.28640804 Ry
     estimated scf accuracy    <       0.33317422 Ry

     iteration # 21     ecut=    55.00 Ry     beta= 0.70
     Davidson diagonalization with overlap
     ethr =  4.22E-04,  avg # of iterations =  3.2

     total cpu time spent up to now is       31.6 secs

     total energy              =     -35.44746840 Ry
     estimated scf accuracy    <       0.31228288 Ry

     iteration # 22     ecut=    55.00 Ry     beta= 0.70
     Davidson diagonalization with overlap
     c_bands:  1 eigenvalues not converged
     ethr =  4.22E-04,  avg # of iterations =  3.2

     total cpu time spent up to now is       32.6 secs

     total energy              =     -35.40968948 Ry
     estimated scf accuracy    <       0.50171443 Ry

     iteration # 23     ecut=    55.00 Ry     beta= 0.70
     Davidson diagonalization with overlap
     ethr =  4.22E-04,  avg # of iterations =  1.0

     total cpu time spent up to now is       33.4 secs

     total energy              =     -35.42688318 Ry
     estimated scf accuracy    <       0.44673894 Ry

     iteration # 24     ecut=    55.00 Ry     beta= 0.70
     Davidson diagonalization with overlap
     ethr =  4.22E-04,  avg # of iterations =  1.0

     total cpu time spent up to now is       34.2 secs

     total energy              =     -35.38158646 Ry
     estimated scf accuracy    <       0.46726373 Ry

     iteration # 25     ecut=    55.00 Ry     beta= 0.70
     Davidson diagonalization with overlap
     ethr =  4.22E-04,  avg # of iterations =  1.0

     total cpu time spent up to now is       35.1 secs

     total energy              =     -35.27302716 Ry
     estimated scf accuracy    <       0.41787146 Ry

     iteration # 26     ecut=    55.00 Ry     beta= 0.70
     Davidson diagonalization with overlap
     ethr =  4.22E-04,  avg # of iterations =  1.3

     negative rho (up, down):  1.847E-02 0.000E+00

     total cpu time spent up to now is       36.1 secs

     total energy              =     -35.02476742 Ry
     estimated scf accuracy    <       0.29450622 Ry

     iteration # 27     ecut=    55.00 Ry     beta= 0.70
     Davidson diagonalization with overlap
     c_bands:  1 eigenvalues not converged
     c_bands:  1 eigenvalues not converged
     ethr =  4.22E-04,  avg # of iterations =  8.1

     negative rho (up, down):  5.042E-03 0.000E+00

     total cpu time spent up to now is       37.8 secs

     total energy              =     -35.05799644 Ry
     estimated scf accuracy    <       0.00574832 Ry

     iteration # 28     ecut=    55.00 Ry     beta= 0.70
     Davidson diagonalization with overlap
     c_bands:  1 eigenvalues not converged
     c_bands:  1 eigenvalues not converged
     c_bands:  1 eigenvalues not converged
     ethr =  1.80E-05,  avg # of iterations =  9.3

     negative rho (up, down):  7.626E-03 0.000E+00

     total cpu time spent up to now is       39.7 secs

     total energy              =     -35.05958669 Ry
     estimated scf accuracy    <       0.00328417 Ry

     iteration # 29     ecut=    55.00 Ry     beta= 0.70
     Davidson diagonalization with overlap
     c_bands:  1 eigenvalues not converged
     c_bands:  1 eigenvalues not converged
     ethr =  1.03E-05,  avg # of iterations =  6.8

     negative rho (up, down):  5.825E-03 0.000E+00

     total cpu time spent up to now is       41.1 secs

     total energy              =     -35.06056214 Ry
     estimated scf accuracy    <       0.00030222 Ry

     iteration # 30     ecut=    55.00 Ry     beta= 0.70
     Davidson diagonalization with overlap
     c_bands:  1 eigenvalues not converged
     c_bands:  1 eigenvalues not converged
     ethr =  9.44E-07,  avg # of iterations = 10.6

     negative rho (up, down):  5.884E-03 0.000E+00

     total cpu time spent up to now is       43.6 secs

     total energy              =     -35.06080985 Ry
     estimated scf accuracy    <       0.00089408 Ry

     iteration # 31     ecut=    55.00 Ry     beta= 0.70
     Davidson diagonalization with overlap
     ethr =  9.44E-07,  avg # of iterations =  2.1

     negative rho (up, down):  5.862E-03 0.000E+00

     total cpu time spent up to now is       44.4 secs

     total energy              =     -35.06066651 Ry
     estimated scf accuracy    <       0.00035971 Ry

     iteration # 32     ecut=    55.00 Ry     beta= 0.70
     Davidson diagonalization with overlap
     ethr =  9.44E-07,  avg # of iterations =  5.4

     negative rho (up, down):  5.877E-03 0.000E+00

     total cpu time spent up to now is       45.8 secs

     total energy              =     -35.06075546 Ry
     estimated scf accuracy    <       0.00001019 Ry

     iteration # 33     ecut=    55.00 Ry     beta= 0.70
     Davidson diagonalization with overlap
     ethr =  3.18E-08,  avg # of iterations =  8.6

     negative rho (up, down):  5.879E-03 0.000E+00

     total cpu time spent up to now is       48.1 secs

     total energy              =     -35.06077848 Ry
     estimated scf accuracy    <       0.00000807 Ry

     iteration # 34     ecut=    55.00 Ry     beta= 0.70
     Davidson diagonalization with overlap
     ethr =  2.52E-08,  avg # of iterations =  1.9

     negative rho (up, down):  5.877E-03 0.000E+00

     total cpu time spent up to now is       48.9 secs

     total energy              =     -35.06077907 Ry
     estimated scf accuracy    <       0.00000131 Ry

     iteration # 35     ecut=    55.00 Ry     beta= 0.70
     Davidson diagonalization with overlap
     ethr =  4.10E-09,  avg # of iterations =  5.5

     negative rho (up, down):  5.878E-03 0.000E+00

     total cpu time spent up to now is       50.7 secs

     total energy              =     -35.06078009 Ry
     estimated scf accuracy    <       0.00000010 Ry

     iteration # 36     ecut=    55.00 Ry     beta= 0.70
     Davidson diagonalization with overlap
     ethr =  3.01E-10,  avg # of iterations =  8.8

     negative rho (up, down):  5.875E-03 0.000E+00

     total cpu time spent up to now is       53.2 secs

     total energy              =     -35.06078028 Ry
     estimated scf accuracy    <       0.00000005 Ry

     iteration # 37     ecut=    55.00 Ry     beta= 0.70
     Davidson diagonalization with overlap
     c_bands:  1 eigenvalues not converged
     ethr =  1.60E-10,  avg # of iterations =  4.4

     negative rho (up, down):  5.875E-03 0.000E+00

     total cpu time spent up to now is       54.2 secs

     total energy              =     -35.06078028 Ry
     estimated scf accuracy    <       0.00000003 Ry

     iteration # 38     ecut=    55.00 Ry     beta= 0.70
     Davidson diagonalization with overlap
     c_bands:  1 eigenvalues not converged
     ethr =  8.23E-11,  avg # of iterations =  5.6

     negative rho (up, down):  5.875E-03 0.000E+00

     total cpu time spent up to now is       55.4 secs

     End of self-consistent calculation

          k = 0.0000 0.0000 0.0000 (  3727 PWs)   bands (ev):

   -34.0788 -34.0788 -27.8899 -23.0766 -21.1145 -21.1145 -17.8153 -15.1522
   -15.1522  -8.1368  -7.9771  -5.8146  -2.4492  -2.4492  -1.6652   6.8617
     7.0648   8.3970   9.0483   9.0523

          k = 0.0000 0.0962 0.0000 (  3733 PWs)   bands (ev):

   -34.2547 -34.1474 -28.4370 -23.0035 -20.7451 -20.0363 -17.6694 -15.4606
   -15.3552  -8.1748  -8.0220  -5.7132  -2.2144  -2.0255  -1.5505   7.0878
     7.2931   8.2433   8.6148   8.7454

          k = 0.0000 0.1925 0.0000 (  3703 PWs)   bands (ev):

   -34.6978 -34.3982 -29.3230 -22.7756 -19.7495 -17.8188 -16.9248 -16.2523
   -15.8578  -8.7153  -7.6751  -5.4679  -1.4750  -1.2105  -0.8830   6.7602
     7.7656   7.9694   8.0256   8.2555

          k = 0.0000 0.2887 0.0000 (  3676 PWs)   bands (ev):

   -35.2350 -34.8715 -29.8387 -22.4037 -18.4043 -17.2922 -16.8494 -16.4595
   -14.0131  -9.5333  -7.1366  -5.2726  -0.6739  -0.3136   0.6633   5.1068
     6.8827   7.2159   8.3175   8.8961

          k = 0.0000 0.3849 0.0000 (  3662 PWs)   bands (ev):

   -35.7149 -35.4291 -29.9529 -21.8844 -18.3953 -17.0446 -16.9875 -16.0227
   -10.7062 -10.2503  -6.5426  -5.1428   0.0109   1.0267   2.2446   3.4919
     5.4022   5.4197   6.5332   9.7827

          k = 0.0000 0.4811 0.0000 (  3654 PWs)   bands (ev):

   -36.0368 -35.8527 -29.8949 -21.2358 -19.4354 -17.3401 -16.0228 -15.1795
   -11.5530  -6.7687  -6.1299  -4.9213   0.7498   1.8609   2.1716   2.8127
     3.4526   4.2603   6.0872   8.0385

          k = 0.0000-0.5774 0.0000 (  3600 PWs)   bands (ev):

   -36.1489 -36.0061 -29.8528 -20.5881 -20.2041 -17.4630 -15.6392 -14.7210
   -12.0692  -6.0022  -4.7802  -4.5280   0.1382   1.2875   1.8664   2.6653
     3.7950   3.9100   5.9331   7.3276

          k = 0.0833 0.1443 0.0000 (  3705 PWs)   bands (ev):

   -34.6402 -34.2212 -29.1240 -22.8467 -20.0362 -18.3939 -17.2777 -15.9723
   -15.7419  -8.5380  -7.7850  -5.5192  -1.8008  -1.3227  -1.1759   7.2941
     7.5397   7.7468   8.0382   8.5694

          k = 0.0833 0.2406 0.0000 (  3670 PWs)   bands (ev):

   -35.2851 -34.3860 -29.7937 -22.5470 -18.8104 -17.1298 -16.8233 -16.3490
   -15.2411  -9.2131  -7.3194  -5.2809  -0.9853  -0.8866   0.2656   5.9061
     6.9258   7.4102   8.4431   8.6430

          k = 0.0833 0.3368 0.0000 (  3669 PWs)   bands (ev):

   -35.9638 -34.6743 -30.1142 -22.1075 -17.8532 -17.3990 -16.9414 -16.3638
   -11.9651 -10.1104  -6.7029  -5.1349  -0.2835   0.1738   1.8780   4.2522
     5.7147   6.0240   7.3404  10.5371

          k = 0.0833 0.4330 0.0000 (  3654 PWs)   bands (ev):

   -36.5051 -34.9774 -30.1547 -21.5228 -18.9078 -17.3901 -16.1575 -15.5087
   -11.1541  -8.3636  -6.1221  -4.9753   0.4027   1.4148   2.7135   3.1624
     3.6778   4.8423   6.0333   8.4533

          k = 0.0833 0.5292 0.0000 (  3630 PWs)   bands (ev):

   -36.8007 -35.1633 -30.1110 -20.8029 -19.8676 -17.6280 -15.4244 -14.7547
   -11.9886  -5.8142  -5.1248  -4.7786   0.7277   0.9789   2.1105   2.4024
     3.1994   4.6906   5.5316   7.1408

          k = 0.1667 0.2887 0.0000 (  3687 PWs)   bands (ev):

   -36.0865 -34.2778 -30.2794 -22.1827 -17.5165 -17.4284 -17.0875 -16.4829
   -12.5637  -9.9718  -6.7340  -5.0916  -0.3896  -0.2931   1.8339   4.9957
     5.0351   6.2561   7.9508   9.5846

          k = 0.1667 0.3849 0.0000 (  3677 PWs)   bands (ev):

   -36.7894 -34.2214 -30.5959 -21.6732 -18.3708 -17.7060 -16.0074 -15.6979
   -10.8924  -9.4126  -6.0348  -4.9035   0.1874   0.6526   3.1598   3.2639
     3.8647   5.2426   6.2653   8.2265

          k = 0.1667 0.4811 0.0000 (  3638 PWs)   bands (ev):

   -37.2547 -34.2253 -30.7234 -21.0166 -19.3110 -18.0597 -14.9948 -14.7870
   -11.8290  -6.1418  -5.4537  -4.7389   0.5771   1.6487   1.7785   2.3481
     3.1710   5.1053   5.2906   6.3424

          k = 0.1667 0.5774 0.0000 (  3632 PWs)   bands (ev):

   -37.4167 -34.2372 -30.7490 -20.3480 -20.0803 -18.1772 -14.6060 -14.2776
   -12.3577  -5.2472  -4.6413  -4.0352  -0.0234   0.6252   2.1866   2.4119
     2.5275   4.6871   5.5916   5.7278

          k = 0.2500 0.4330 0.0000 (  3641 PWs)   bands (ev):

   -37.4094 -33.7285 -31.1276 -21.0864 -18.8186 -18.5163 -14.9043 -14.6612
   -11.7468  -6.6148  -5.2920  -4.6729   0.4117   1.2811   2.3288   2.3941
     3.2152   5.1138   5.5107   5.7080

          k = 0.2500 0.5292 0.0000 (  3658 PWs)   bands (ev):

   -37.7383 -33.3539 -31.5239 -20.3899 -19.5706 -18.8551 -14.1430 -13.8060
   -12.5712  -4.7869  -4.5604  -3.8843   0.0529   0.2941   1.8872   2.5010
     2.5596   4.1619   4.4899   6.1236

          k = 0.3333 0.5774 0.0000 (  3666 PWs)   bands (ev):

   -37.9045 -32.4303 -32.4303 -19.6662 -19.6662 -19.6454 -13.3725 -13.3455
   -13.3455  -4.4967  -4.4967  -1.7065  -1.7065  -0.1763   2.1328   2.1328
     3.2078   3.2078   3.8906   6.4562

     the Fermi energy is     3.4850 ev

!    total energy              =     -35.06078029 Ry
     estimated scf accuracy    <          1.0E-09 Ry
     smearing contrib. (-TS)   =       0.00156084 Ry
     internal energy E=F+TS    =     -35.06234113 Ry

     The total energy is F=E-TS. E is the sum of the following terms:
     one-electron contribution =   -2293.95844930 Ry
     hartree contribution      =    1159.32733540 Ry
     xc contribution           =     -49.24504719 Ry
     ewald contribution        =    1148.81381996 Ry

     convergence has been achieved in  38 iterations

     negative rho (up, down):  5.875E-03 0.000E+00

     Forces acting on atoms (cartesian axes, Ry/au):

     atom    1 type  1   force =    -0.00000000    0.00000000  -21.94182088
     atom    2 type  1   force =     0.00000000   -0.00000000  -21.94182088
     atom    3 type  1   force =     0.00000000   -0.00000000    2.91556444
     atom    4 type  1   force =     0.00000000    0.00000000    2.91556444
     atom    5 type  1   force =     0.00000000   -0.00000000   -2.91332082
     atom    6 type  1   force =    -0.00000000    0.00000000   -2.91332082
     atom    7 type  1   force =    -0.00000000   -0.00000000   21.93957726
     atom    8 type  1   force =     0.00000000    0.00000000   21.93957726

     Total force =    44.266839     Total SCF correction =     0.000076


     Computing stress (Cartesian axis) and pressure


     negative rho (up, down):  5.875E-03 0.000E+00
          total   stress  (Ry/bohr**3)                   (kbar)     P=    12932.67
   0.02169753   0.00000000   0.00000000         3191.82        0.00        0.00
   0.00000000   0.02169753   0.00000000            0.00     3191.82        0.00
   0.00000000   0.00000000   0.22034855            0.00        0.00    32414.39


     Writing all to output data dir /home/rfa/Skripsi/DFT/dft-graphene/tmp/gr-aa-4L.save/ :
     XML data file, charge density, pseudopotentials, collected wavefunctions

     init_run     :      0.94s CPU      0.91s WALL (       1 calls)
     electrons    :     97.67s CPU     54.45s WALL (       1 calls)
     forces       :      0.35s CPU      0.19s WALL (       1 calls)
     stress       :      1.12s CPU      0.63s WALL (       1 calls)

     Called by init_run:
     wfcinit      :      0.74s CPU      0.50s WALL (       1 calls)
     potinit      :      0.01s CPU      0.01s WALL (       1 calls)
     hinit0       :      0.17s CPU      0.37s WALL (       1 calls)

     Called by electrons:
     c_bands      :     86.83s CPU     48.18s WALL (      38 calls)
     sum_band     :      9.43s CPU      5.16s WALL (      38 calls)
     v_of_rho     :      0.62s CPU      0.55s WALL (      39 calls)
     newd         :      0.37s CPU      0.31s WALL (      39 calls)
     mix_rho      :      0.37s CPU      0.20s WALL (      38 calls)

     Called by c_bands:
     init_us_2    :      2.05s CPU      1.06s WALL (    1501 calls)
     cegterg      :     83.40s CPU     46.27s WALL (     723 calls)

     Called by *egterg:
     cdiaghg      :      8.81s CPU      4.61s WALL (    4782 calls)
     h_psi        :     57.43s CPU     32.65s WALL (    4801 calls)
     s_psi        :      3.48s CPU      1.83s WALL (    4801 calls)
     g_psi        :      0.53s CPU      0.28s WALL (    4059 calls)

     Called by h_psi:
     h_psi:calbec :      6.60s CPU      3.80s WALL (    4801 calls)
     vloc_psi     :     46.24s CPU     26.34s WALL (    4801 calls)
     add_vuspsi   :      4.00s CPU      2.15s WALL (    4801 calls)

     General routines
     calbec       :      8.43s CPU      4.79s WALL (    5846 calls)
     fft          :      0.37s CPU      0.55s WALL (     454 calls)
     ffts         :      0.02s CPU      0.01s WALL (      38 calls)
     fftw         :     45.82s CPU     26.12s WALL (  113806 calls)

     Parallel routines

     PWSCF        :   1m40.20s CPU     56.59s WALL


   This run was terminated on:  14:42:23  16Apr2025            

=------------------------------------------------------------------------------=
   JOB DONE.
=------------------------------------------------------------------------------=
