
     Program PWSCF v.7.4.1 starts on 16Apr2025 at 14:39: 2 

     This program is part of the open-source Quantum ESPRESSO suite
     for quantum simulation of materials; please cite
         "P. Giannozzi et al., J. Phys.:Condens. Matter 21 395502 (2009);
         "P. Giannozzi et al., J. Phys.:Condens. Matter 29 465901 (2017);
         "P. Giannozzi et al., J. Chem. Phys. 152 154105 (2020);
          URL http://www.quantum-espresso.org", 
     in publications or presentations arising from this work. More details at
     http://www.quantum-espresso.org/quote

     Parallel version (MPI), running on     7 processors

     MPI processes distributed on     1 nodes
     13557 MiB available memory on the printing compute node when the environment starts

     Waiting for input...
     Reading input from standard input

     Current dimensions of program PWSCF are:
     Max number of different atomic species (ntypx) = 10
     Max number of k-points (npk) =  40000
     Max angular momentum in pseudopotentials (lmaxx) =  4

     R & G space division:  proc/nbgrp/npool/nimage =       7
     Subspace diagonalization in iterative solution of the eigenvalue problem:
     a serial algorithm will be used


     Parallelization info
     --------------------
     sticks:   dense  smooth     PW     G-vecs:    dense   smooth      PW
     Min          17      17      5                  919      919     181
     Max          18      18      6                  934      934     204
     Sum         121     121     37                 6489     6489    1321

     Using Slab Decomposition



     bravais-lattice index     =            4
     lattice parameter (alat)  =       4.6561  a.u.
     unit-cell volume          =     532.1899 (a.u.)^3
     number of atoms/cell      =            8
     number of atomic types    =            1
     number of electrons       =        32.00
     number of Kohn-Sham states=           20
     kinetic-energy cutoff     =      20.0000  Ry
     charge density cutoff     =      80.0000  Ry
     scf convergence threshold =      1.0E-08
     mixing beta               =       0.7000
     number of iterations used =            8  plain     mixing
     Exchange-correlation= PBE
                           (   1   4   3   4   0   0   0)

     celldm(1)=   4.656107  celldm(2)=   0.000000  celldm(3)=   6.087896
     celldm(4)=   0.000000  celldm(5)=   0.000000  celldm(6)=   0.000000

     crystal axes: (cart. coord. in units of alat)
               a(1) = (   1.000000   0.000000   0.000000 )  
               a(2) = (  -0.500000   0.866025   0.000000 )  
               a(3) = (   0.000000   0.000000   6.087896 )  

     reciprocal axes: (cart. coord. in units 2 pi/alat)
               b(1) = (  1.000000  0.577350 -0.000000 )  
               b(2) = (  0.000000  1.154701  0.000000 )  
               b(3) = (  0.000000 -0.000000  0.164260 )  


     PseudoPot. # 1 for C  read from file:
     /home/rfa/Skripsi/DFT/dft-graphene/pseudo/C.pbe-n-rrkjus_psl.0.1.UPF
     MD5 check sum: 96a6a315177d77e6c95bf6fd3870f9e3
     Pseudo is Ultrasoft + core correction, Zval =  4.0
     Generated using &quot;atomic&quot; code by A. Dal Corso  v.6.3MaX
     Using radial grid of 1073 points,  4 beta functions with: 
                l(1) =   0
                l(2) =   0
                l(3) =   1
                l(4) =   1
     Q(r) pseudized with 0 coefficients 


     atomic species   valence    mass     pseudopotential
     C                 4.00    12.01070     C ( 1.00)

     12 Sym. Ops. (no inversion) found



   Cartesian axes

     site n.     atom                  positions (alat units)
         1        C      tau(   1) = (   0.0000000   0.5773503   3.0439478  )
         2        C      tau(   2) = (   0.5000000   0.2886751   3.0439478  )
         3        C      tau(   3) = (   0.0000000   0.5773503   3.2468777  )
         4        C      tau(   4) = (   0.5000000   0.2886751   3.2468777  )
         5        C      tau(   5) = (   0.0000000   0.5773503   3.4498075  )
         6        C      tau(   6) = (   0.5000000   0.2886751   3.4498075  )
         7        C      tau(   7) = (   0.0000000   0.5773503   3.6527374  )
         8        C      tau(   8) = (   0.5000000   0.2886751   3.6527374  )

     number of k points=    19  Marzari-Vanderbilt smearing, width (Ry)=  0.0200
                       cart. coord. in units 2pi/alat
        k(    1) = (   0.0000000   0.0000000   0.0000000), wk =   0.0138889
        k(    2) = (   0.0000000   0.0962250   0.0000000), wk =   0.0833333
        k(    3) = (   0.0000000   0.1924501   0.0000000), wk =   0.0833333
        k(    4) = (   0.0000000   0.2886751   0.0000000), wk =   0.0833333
        k(    5) = (   0.0000000   0.3849002   0.0000000), wk =   0.0833333
        k(    6) = (   0.0000000   0.4811252   0.0000000), wk =   0.0833333
        k(    7) = (   0.0000000  -0.5773503   0.0000000), wk =   0.0416667
        k(    8) = (   0.0833333   0.1443376   0.0000000), wk =   0.0833333
        k(    9) = (   0.0833333   0.2405626   0.0000000), wk =   0.1666667
        k(   10) = (   0.0833333   0.3367877   0.0000000), wk =   0.1666667
        k(   11) = (   0.0833333   0.4330127   0.0000000), wk =   0.1666667
        k(   12) = (   0.0833333   0.5292377   0.0000000), wk =   0.1666667
        k(   13) = (   0.1666667   0.2886751   0.0000000), wk =   0.0833333
        k(   14) = (   0.1666667   0.3849002   0.0000000), wk =   0.1666667
        k(   15) = (   0.1666667   0.4811252   0.0000000), wk =   0.1666667
        k(   16) = (   0.1666667   0.5773503   0.0000000), wk =   0.0833333
        k(   17) = (   0.2500000   0.4330127   0.0000000), wk =   0.0833333
        k(   18) = (   0.2500000   0.5292377   0.0000000), wk =   0.1666667
        k(   19) = (   0.3333333   0.5773503   0.0000000), wk =   0.0277778

     Dense  grid:     6489 G-vectors     FFT dimensions: (  15,  15,  81)

     Estimated max dynamical RAM per process >       2.52 MB

     Estimated total dynamical RAM >      17.62 MB

     Check: negative core charge=   -0.000413

     Initial potential from superposition of free atoms

     starting charge      31.9997, renormalised to      32.0000

     negative rho (up, down):  1.452E-02 0.000E+00
     Starting wfcs are   32 randomized atomic wfcs

     total cpu time spent up to now is        0.3 secs

     per-process dynamical memory:     8.8 Mb

     Self-consistent Calculation

     iteration #  1     ecut=    20.00 Ry     beta= 0.70
     Davidson diagonalization with overlap
     ethr =  1.00E-02,  avg # of iterations =  6.6

     negative rho (up, down):  2.331E-01 0.000E+00

     total cpu time spent up to now is        0.6 secs

     total energy              =     -11.45586221 Ry
     estimated scf accuracy    <      24.82038918 Ry

     iteration #  2     ecut=    20.00 Ry     beta= 0.70
     Davidson diagonalization with overlap
     ethr =  1.00E-02,  avg # of iterations =  9.5

     negative rho (up, down):  3.786E-03 0.000E+00

     total cpu time spent up to now is        1.0 secs

     total energy              =      25.39611977 Ry
     estimated scf accuracy    <     222.32752746 Ry

     iteration #  3     ecut=    20.00 Ry     beta= 0.70
     Davidson diagonalization with overlap
     ethr =  1.00E-02,  avg # of iterations =  8.6

     negative rho (up, down):  3.018E-02 0.000E+00

     total cpu time spent up to now is        1.3 secs

     total energy              =     -22.05750439 Ry
     estimated scf accuracy    <       3.33579991 Ry

     iteration #  4     ecut=    20.00 Ry     beta= 0.70
     Davidson diagonalization with overlap
     ethr =  1.00E-02,  avg # of iterations =  1.6

     negative rho (up, down):  5.506E-02 0.000E+00

     total cpu time spent up to now is        1.4 secs

     total energy              =     -21.77134980 Ry
     estimated scf accuracy    <       2.01331592 Ry

     iteration #  5     ecut=    20.00 Ry     beta= 0.70
     Davidson diagonalization with overlap
     ethr =  6.29E-03,  avg # of iterations =  1.3

     negative rho (up, down):  8.120E-02 0.000E+00

     total cpu time spent up to now is        1.6 secs

     total energy              =     -21.52315503 Ry
     estimated scf accuracy    <       1.34472190 Ry

     iteration #  6     ecut=    20.00 Ry     beta= 0.70
     Davidson diagonalization with overlap
     ethr =  4.20E-03,  avg # of iterations =  2.4

     negative rho (up, down):  8.551E-02 0.000E+00

     total cpu time spent up to now is        1.7 secs

     total energy              =     -21.54664335 Ry
     estimated scf accuracy    <       0.97567830 Ry

     iteration #  7     ecut=    20.00 Ry     beta= 0.70
     Davidson diagonalization with overlap
     ethr =  3.05E-03,  avg # of iterations =  1.8

     negative rho (up, down):  9.420E-02 0.000E+00

     total cpu time spent up to now is        1.8 secs

     total energy              =     -21.45946923 Ry
     estimated scf accuracy    <       0.91246023 Ry

     iteration #  8     ecut=    20.00 Ry     beta= 0.70
     Davidson diagonalization with overlap
     ethr =  2.85E-03,  avg # of iterations =  1.9

     negative rho (up, down):  1.156E-01 0.000E+00

     total cpu time spent up to now is        2.0 secs

     total energy              =     -21.31584810 Ry
     estimated scf accuracy    <       0.78664673 Ry

     iteration #  9     ecut=    20.00 Ry     beta= 0.70
     Davidson diagonalization with overlap
     ethr =  2.46E-03,  avg # of iterations =  1.3

     negative rho (up, down):  2.809E-01 0.000E+00

     total cpu time spent up to now is        2.1 secs

     total energy              =     -20.86320204 Ry
     estimated scf accuracy    <       0.51774794 Ry

     iteration # 10     ecut=    20.00 Ry     beta= 0.70
     Davidson diagonalization with overlap
     ethr =  1.62E-03,  avg # of iterations =  5.9

     negative rho (up, down):  1.647E-01 0.000E+00

     total cpu time spent up to now is        2.3 secs

     total energy              =     -21.06789444 Ry
     estimated scf accuracy    <       0.08878559 Ry

     iteration # 11     ecut=    20.00 Ry     beta= 0.70
     Davidson diagonalization with overlap
     ethr =  2.77E-04,  avg # of iterations =  5.3

     negative rho (up, down):  2.963E-01 0.000E+00

     total cpu time spent up to now is        2.5 secs

     total energy              =     -20.93169964 Ry
     estimated scf accuracy    <       0.19086778 Ry

     iteration # 12     ecut=    20.00 Ry     beta= 0.70
     Davidson diagonalization with overlap
     ethr =  2.77E-04,  avg # of iterations =  4.5

     negative rho (up, down):  2.909E-01 0.000E+00

     total cpu time spent up to now is        2.7 secs

     total energy              =     -20.94150183 Ry
     estimated scf accuracy    <       0.02703650 Ry

     iteration # 13     ecut=    20.00 Ry     beta= 0.70
     Davidson diagonalization with overlap
     ethr =  8.45E-05,  avg # of iterations =  2.5

     negative rho (up, down):  2.933E-01 0.000E+00

     total cpu time spent up to now is        2.9 secs

     total energy              =     -20.94335745 Ry
     estimated scf accuracy    <       0.00388980 Ry

     iteration # 14     ecut=    20.00 Ry     beta= 0.70
     Davidson diagonalization with overlap
     ethr =  1.22E-05,  avg # of iterations =  2.7

     negative rho (up, down):  2.919E-01 0.000E+00

     total cpu time spent up to now is        3.0 secs

     total energy              =     -20.94398192 Ry
     estimated scf accuracy    <       0.00068001 Ry

     iteration # 15     ecut=    20.00 Ry     beta= 0.70
     Davidson diagonalization with overlap
     ethr =  2.13E-06,  avg # of iterations =  3.5

     negative rho (up, down):  2.922E-01 0.000E+00

     total cpu time spent up to now is        3.2 secs

     total energy              =     -20.94410108 Ry
     estimated scf accuracy    <       0.00006630 Ry

     iteration # 16     ecut=    20.00 Ry     beta= 0.70
     Davidson diagonalization with overlap
     ethr =  2.07E-07,  avg # of iterations =  2.0

     negative rho (up, down):  2.915E-01 0.000E+00

     total cpu time spent up to now is        3.4 secs

     total energy              =     -20.94405918 Ry
     estimated scf accuracy    <       0.00006943 Ry

     iteration # 17     ecut=    20.00 Ry     beta= 0.70
     Davidson diagonalization with overlap
     ethr =  2.07E-07,  avg # of iterations =  2.5

     negative rho (up, down):  2.916E-01 0.000E+00

     total cpu time spent up to now is        3.5 secs

     total energy              =     -20.94407920 Ry
     estimated scf accuracy    <       0.00000805 Ry

     iteration # 18     ecut=    20.00 Ry     beta= 0.70
     Davidson diagonalization with overlap
     ethr =  2.51E-08,  avg # of iterations =  2.0

     negative rho (up, down):  2.916E-01 0.000E+00

     total cpu time spent up to now is        3.7 secs

     total energy              =     -20.94408108 Ry
     estimated scf accuracy    <       0.00000049 Ry

     iteration # 19     ecut=    20.00 Ry     beta= 0.70
     Davidson diagonalization with overlap
     ethr =  1.52E-09,  avg # of iterations =  2.8

     negative rho (up, down):  2.916E-01 0.000E+00

     total cpu time spent up to now is        3.8 secs

     total energy              =     -20.94408157 Ry
     estimated scf accuracy    <       0.00000002 Ry

     iteration # 20     ecut=    20.00 Ry     beta= 0.70
     Davidson diagonalization with overlap
     ethr =  5.77E-11,  avg # of iterations =  3.8

     negative rho (up, down):  2.916E-01 0.000E+00

     total cpu time spent up to now is        4.0 secs

     End of self-consistent calculation

          k = 0.0000 0.0000 0.0000 (   815 PWs)   bands (ev):

   -43.0793 -43.0793 -32.0868 -25.1324 -25.1324 -20.3883 -20.3123 -20.3123
   -13.0911  -7.8116  -7.2213  -5.1976  -4.6273  -4.6273   5.0787   5.3895
     6.7367   7.3354   7.3354   8.2595

          k = 0.0000 0.0962 0.0000 (   825 PWs)   bands (ev):

   -43.1999 -43.0387 -32.5872 -24.8131 -24.1702 -20.7346 -20.6991 -20.3936
   -13.3069  -8.8342  -7.5328  -5.6315  -4.3262  -4.0559   5.3073   5.5926
     5.6371   6.3831   6.9604   6.9645

          k = 0.0000 0.1925 0.0000 (   824 PWs)   bands (ev):

   -43.4308 -42.9233 -34.2187 -23.8510 -23.0447 -21.2036 -21.1759 -19.9788
   -13.0334  -9.0714  -7.0965  -5.4348  -3.0333  -2.2023   3.5233   5.4516
     5.8237   5.9884   6.2626   7.6357

          k = 0.0000 0.2887 0.0000 (   796 PWs)   bands (ev):

   -43.5314 -42.0205 -33.9850 -21.6144 -21.5712 -21.5325 -19.3111 -17.6139
   -12.5571  -9.5375  -6.2320  -5.0258  -0.2715  -0.1124   1.5578   4.5149
     4.8035   4.8953   7.1246   7.3718

          k = 0.0000 0.3849 0.0000 (   806 PWs)   bands (ev):

   -43.9954 -41.5760 -34.3201 -22.7402 -22.3692 -22.0750 -19.0689 -14.8977
   -11.9342 -10.3493  -5.3094  -4.3022  -0.5277   1.0802   1.2343   1.8372
     3.2838   3.6288   8.6939   8.7465

          k = 0.0000 0.4811 0.0000 (   800 PWs)   bands (ev):

   -44.3182 -42.0490 -34.2948 -22.8492 -22.4498 -22.3429 -18.7957 -12.7364
   -10.8758  -9.2239  -4.0769  -2.8231  -2.2530  -0.7535   1.0675   2.9038
     3.3039   4.8868   6.0781  10.3547

          k = 0.0000-0.5774 0.0000 (   806 PWs)   bands (ev):

   -44.4325 -42.2247 -34.2743 -23.0312 -22.4506 -22.3191 -18.6942 -11.9982
   -11.4300  -7.4017  -3.6587  -3.1051  -2.3094  -2.0961   0.1394   3.0216
     3.5661   5.0038   7.3538   7.9349

          k = 0.0833 0.1443 0.0000 (   809 PWs)   bands (ev):

   -43.3415 -42.7661 -33.1860 -23.9866 -22.2759 -21.0900 -20.4540 -20.1322
   -12.8252  -8.5693  -7.1788  -5.2666  -2.9605  -2.2013   4.4104   5.7102
     5.7648   6.0486   7.2811   7.4150

          k = 0.0833 0.2406 0.0000 (   817 PWs)   bands (ev):

   -43.8574 -42.2808 -35.0563 -24.1569 -21.8987 -20.8476 -20.8302 -19.7174
   -12.6914  -9.1705  -6.6152  -5.0999  -1.6248  -0.8085   2.4474   4.1205
     5.6292   6.4173   6.6705   6.9340

          k = 0.0833 0.3368 0.0000 (   808 PWs)   bands (ev):

   -44.1929 -41.5510 -34.9553 -22.5142 -21.9418 -21.3370 -19.3340 -16.1832
   -12.4456 -10.1262  -5.7929  -4.7246   0.3625   0.4012   0.7175   2.4327
     3.4770   4.2753   8.0274   8.2513

          k = 0.0833 0.4330 0.0000 (   803 PWs)   bands (ev):

   -44.3791 -41.3384 -34.7898 -23.1035 -21.7861 -20.7459 -18.9914 -13.5301
   -10.8316 -10.4353  -4.7056  -3.2775  -1.4707   0.1901   1.4750   1.8547
     3.2628   3.4685   6.3840  10.0077

          k = 0.0833 0.5292 0.0000 (   808 PWs)   bands (ev):

   -44.6295 -41.6378 -34.7397 -23.4465 -21.9878 -20.9062 -18.8470 -12.4410
   -11.3313  -8.1584  -3.5554  -3.2701  -2.3707  -1.8421   0.4245   2.7613
     2.8558   4.5528   6.0016   8.8327

          k = 0.1667 0.2887 0.0000 (   809 PWs)   bands (ev):

   -44.3642 -41.3103 -35.7275 -22.6072 -21.5696 -20.8130 -19.5794 -17.8125
   -12.4095  -9.7345  -5.9409  -4.6650  -0.0105   0.5773   1.0783   2.0496
     4.0558   4.7823   8.0374   8.7404

          k = 0.1667 0.3849 0.0000 (   802 PWs)   bands (ev):

   -44.7688 -40.9158 -35.8744 -23.2085 -21.0343 -19.3789 -18.8287 -14.4318
   -11.5991 -10.1110  -4.9915  -3.8779  -0.6139   0.3217   1.5908   2.2182
     2.9564   3.3682   5.6923   9.5374

          k = 0.1667 0.4811 0.0000 (   790 PWs)   bands (ev):

   -44.7920 -40.2890 -35.6728 -23.6678 -21.2070 -19.1805 -16.3963 -12.5383
   -10.5890  -9.0899  -3.8812  -2.3907  -2.3758  -1.1801   1.3675   2.2660
     2.6390   3.7199   4.9883  10.3424

          k = 0.1667 0.5774 0.0000 (   796 PWs)   bands (ev):

   -44.9418 -40.3375 -35.6837 -23.8179 -21.2808 -19.1553 -15.9530 -12.1315
   -11.3920  -7.2795  -3.9287  -3.2318  -1.9761  -1.9596   0.1809   1.7503
     2.9066   3.4276   7.3558   7.6393

          k = 0.2500 0.4330 0.0000 (   799 PWs)   bands (ev):

   -45.1480 -40.1824 -36.4894 -23.7629 -20.8078 -19.4684 -15.9847 -12.7256
   -10.8019  -9.7294  -4.0123  -2.4916  -2.0718  -1.0562   1.2848   2.2265
     2.7302   2.7644   4.1387  10.7925

          k = 0.2500 0.5292 0.0000 (   796 PWs)   bands (ev):

   -45.0109 -39.3039 -36.6534 -24.0214 -20.6480 -19.5934 -14.9172 -12.2467
   -11.2936  -7.4723  -3.9140  -3.3833  -1.7747  -1.4603   0.1486   0.8967
     1.7884   3.5818   6.0154   8.6011

          k = 0.3333 0.5774 0.0000 (   783 PWs)   bands (ev):

   -44.5806 -37.6303 -37.6303 -24.0570 -20.0620 -20.0620 -14.3231 -11.6527
   -11.6527  -5.4793  -5.4793  -3.1855  -0.6846  -0.6846  -0.5060  -0.5060
     1.4924   4.3025   7.4998   7.4998

     the Fermi energy is     2.9990 ev

!    total energy              =     -20.94408158 Ry
     estimated scf accuracy    <          1.7E-09 Ry
     smearing contrib. (-TS)   =       0.00009253 Ry
     internal energy E=F+TS    =     -20.94417411 Ry

     The total energy is F=E-TS. E is the sum of the following terms:
     one-electron contribution =   -2263.17685501 Ry
     hartree contribution      =    1140.33263203 Ry
     xc contribution           =     -46.91377128 Ry
     ewald contribution        =    1148.81382016 Ry

     convergence has been achieved in  20 iterations

     negative rho (up, down):  2.916E-01 0.000E+00

     Forces acting on atoms (cartesian axes, Ry/au):

     atom    1 type  1   force =     0.00000000   -0.00000000  -27.85417343
     atom    2 type  1   force =     0.00000000    0.00000000  -27.85417343
     atom    3 type  1   force =     0.00000000    0.00000000   -2.30762259
     atom    4 type  1   force =     0.00000000    0.00000000   -2.30762259
     atom    5 type  1   force =     0.00000000    0.00000000    2.30508583
     atom    6 type  1   force =     0.00000000    0.00000000    2.30508583
     atom    7 type  1   force =     0.00000000    0.00000000   27.85671019
     atom    8 type  1   force =    -0.00000000   -0.00000000   27.85671019

     Total force =    55.901517     Total SCF correction =     0.000088


     Computing stress (Cartesian axis) and pressure


     negative rho (up, down):  2.916E-01 0.000E+00
          total   stress  (Ry/bohr**3)                   (kbar)     P=     8429.39
  -0.03906736   0.00000000  -0.00000000        -5747.01        0.00       -0.00
   0.00000000  -0.03906736   0.00000000            0.00    -5747.01        0.00
  -0.00000000   0.00000000   0.25004030           -0.00        0.00    36782.20


     Writing all to output data dir /home/rfa/Skripsi/DFT/dft-graphene/tmp/gr-aa-4L.save/ :
     XML data file, charge density, pseudopotentials, collected wavefunctions

     init_run     :      0.21s CPU      0.20s WALL (       1 calls)
     electrons    :      6.56s CPU      3.70s WALL (       1 calls)
     forces       :      0.03s CPU      0.02s WALL (       1 calls)
     stress       :      0.10s CPU      0.06s WALL (       1 calls)

     Called by init_run:
     wfcinit      :      0.14s CPU      0.08s WALL (       1 calls)
     potinit      :      0.00s CPU      0.00s WALL (       1 calls)
     hinit0       :      0.04s CPU      0.08s WALL (       1 calls)

     Called by electrons:
     c_bands      :      5.78s CPU      3.25s WALL (      20 calls)
     sum_band     :      0.65s CPU      0.37s WALL (      20 calls)
     v_of_rho     :      0.06s CPU      0.03s WALL (      21 calls)
     newd         :      0.04s CPU      0.03s WALL (      21 calls)
     mix_rho      :      0.02s CPU      0.01s WALL (      20 calls)

     Called by c_bands:
     init_us_2    :      0.11s CPU      0.06s WALL (     817 calls)
     cegterg      :      5.49s CPU      3.05s WALL (     380 calls)

     Called by *egterg:
     cdiaghg      :      1.70s CPU      0.88s WALL (    1760 calls)
     h_psi        :      3.14s CPU      1.82s WALL (    1779 calls)
     s_psi        :      0.13s CPU      0.06s WALL (    1779 calls)
     g_psi        :      0.03s CPU      0.02s WALL (    1380 calls)

     Called by h_psi:
     h_psi:calbec :      0.40s CPU      0.23s WALL (    1779 calls)
     vloc_psi     :      2.55s CPU      1.48s WALL (    1779 calls)
     add_vuspsi   :      0.14s CPU      0.08s WALL (    1779 calls)

     General routines
     calbec       :      0.54s CPU      0.30s WALL (    2482 calls)
     fft          :      0.05s CPU      0.08s WALL (     256 calls)
     ffts         :      0.00s CPU      0.00s WALL (      20 calls)
     fftw         :      2.49s CPU      1.42s WALL (   51392 calls)

     Parallel routines

     PWSCF        :      7.04s CPU      4.23s WALL


   This run was terminated on:  14:39: 6  16Apr2025            

=------------------------------------------------------------------------------=
   JOB DONE.
=------------------------------------------------------------------------------=
