
     Program PWSCF v.7.4.1 starts on 22Apr2025 at  6: 2: 5 

     This program is part of the open-source Quantum ESPRESSO suite
     for quantum simulation of materials; please cite
         "P. Giannozzi et al., J. Phys.:Condens. Matter 21 395502 (2009);
         "P. Giannozzi et al., J. Phys.:Condens. Matter 29 465901 (2017);
         "P. Giannozzi et al., J. Chem. Phys. 152 154105 (2020);
          URL http://www.quantum-espresso.org", 
     in publications or presentations arising from this work. More details at
     http://www.quantum-espresso.org/quote

     Parallel version (MPI), running on     7 processors

     MPI processes distributed on     1 nodes
     12181 MiB available memory on the printing compute node when the environment starts

     Waiting for input...
     Reading input from standard input

     Current dimensions of program PWSCF are:
     Max number of different atomic species (ntypx) = 10
     Max number of k-points (npk) =  40000
     Max angular momentum in pseudopotentials (lmaxx) =  4

     R & G space division:  proc/nbgrp/npool/nimage =       7
     Subspace diagonalization in iterative solution of the eigenvalue problem:
     a serial algorithm will be used


     Parallelization info
     --------------------
     sticks:   dense  smooth     PW     G-vecs:    dense   smooth      PW
     Min          51      51     17                 4783     4783     897
     Max          52      52     18                 4800     4800     914
     Sum         361     361    121                33523    33523    6345

     Using Slab Decomposition



     bravais-lattice index     =            4
     lattice parameter (alat)  =       4.6561  a.u.
     unit-cell volume          =     532.1899 (a.u.)^3
     number of atoms/cell      =            2
     number of atomic types    =            1
     number of electrons       =         8.00
     number of Kohn-Sham states=            8
     kinetic-energy cutoff     =      60.0000  Ry
     charge density cutoff     =     240.0000  Ry
     scf convergence threshold =      1.0E-08
     mixing beta               =       0.7000
     number of iterations used =            8  plain     mixing
     Exchange-correlation= PBE
                           (   1   4   3   4   0   0   0)

     celldm(1)=   4.656107  celldm(2)=   0.000000  celldm(3)=   6.087896
     celldm(4)=   0.000000  celldm(5)=   0.000000  celldm(6)=   0.000000

     crystal axes: (cart. coord. in units of alat)
               a(1) = (   1.000000   0.000000   0.000000 )  
               a(2) = (  -0.500000   0.866025   0.000000 )  
               a(3) = (   0.000000   0.000000   6.087896 )  

     reciprocal axes: (cart. coord. in units 2 pi/alat)
               b(1) = (  1.000000  0.577350 -0.000000 )  
               b(2) = (  0.000000  1.154701  0.000000 )  
               b(3) = (  0.000000 -0.000000  0.164260 )  


     PseudoPot. # 1 for C  read from file:
     /home/rfa/Skripsi/DFT/dft-graphene/pseudo/C.pbe-n-rrkjus_psl.0.1.UPF
     MD5 check sum: 96a6a315177d77e6c95bf6fd3870f9e3
     Pseudo is Ultrasoft + core correction, Zval =  4.0
     Generated using &quot;atomic&quot; code by A. Dal Corso  v.6.3MaX
     Using radial grid of 1073 points,  4 beta functions with: 
                l(1) =   0
                l(2) =   0
                l(3) =   1
                l(4) =   1
     Q(r) pseudized with 0 coefficients 


     atomic species   valence    mass     pseudopotential
     C                 4.00    12.01070     C ( 1.00)

     24 Sym. Ops., with inversion, found



   Cartesian axes

     site n.     atom                  positions (alat units)
         1        C      tau(   1) = (   0.0000000   0.5773503   3.0439478  )
         2        C      tau(   2) = (   0.5000000   0.2886751   3.0439478  )

     number of k points=    36  Marzari-Vanderbilt smearing, width (Ry)=  0.0200
                       cart. coord. in units 2pi/alat
        k(    1) = (   0.0833333   0.1443376   0.0136884), wk =   0.0370370
        k(    2) = (   0.0833333   0.1443376   0.0410651), wk =   0.0370370
        k(    3) = (   0.0833333   0.1443376   0.0684418), wk =   0.0370370
        k(    4) = (   0.0833333   0.3367877   0.0136884), wk =   0.0740741
        k(    5) = (   0.0833333   0.3367877   0.0410651), wk =   0.0740741
        k(    6) = (   0.0833333   0.3367877   0.0684418), wk =   0.0740741
        k(    7) = (   0.0833333   0.5292377   0.0136884), wk =   0.0740741
        k(    8) = (   0.0833333   0.5292377   0.0410651), wk =   0.0740741
        k(    9) = (   0.0833333   0.5292377   0.0684418), wk =   0.0740741
        k(   10) = (   0.0833333  -0.4330127   0.0136884), wk =   0.0740741
        k(   11) = (   0.0833333  -0.4330127   0.0410651), wk =   0.0740741
        k(   12) = (   0.0833333  -0.4330127   0.0684418), wk =   0.0740741
        k(   13) = (   0.0833333  -0.2405626   0.0136884), wk =   0.0740741
        k(   14) = (   0.0833333  -0.2405626   0.0410651), wk =   0.0740741
        k(   15) = (   0.0833333  -0.2405626   0.0684418), wk =   0.0740741
        k(   16) = (   0.0833333  -0.0481125   0.0136884), wk =   0.0370370
        k(   17) = (   0.0833333  -0.0481125   0.0410651), wk =   0.0370370
        k(   18) = (   0.0833333  -0.0481125   0.0684418), wk =   0.0370370
        k(   19) = (   0.2500000   0.4330127   0.0136884), wk =   0.0370370
        k(   20) = (   0.2500000   0.4330127   0.0410651), wk =   0.0370370
        k(   21) = (   0.2500000   0.4330127   0.0684418), wk =   0.0370370
        k(   22) = (   0.2500000   0.6254628   0.0136884), wk =   0.0740741
        k(   23) = (   0.2500000   0.6254628   0.0410651), wk =   0.0740741
        k(   24) = (   0.2500000   0.6254628   0.0684418), wk =   0.0740741
        k(   25) = (   0.2500000  -0.3367877   0.0136884), wk =   0.0740741
        k(   26) = (   0.2500000  -0.3367877   0.0410651), wk =   0.0740741
        k(   27) = (   0.2500000  -0.3367877   0.0684418), wk =   0.0740741
        k(   28) = (   0.2500000  -0.1443376   0.0136884), wk =   0.0370370
        k(   29) = (   0.2500000  -0.1443376   0.0410651), wk =   0.0370370
        k(   30) = (   0.2500000  -0.1443376   0.0684418), wk =   0.0370370
        k(   31) = (   0.4166667   0.7216878   0.0136884), wk =   0.0370370
        k(   32) = (   0.4166667   0.7216878   0.0410651), wk =   0.0370370
        k(   33) = (   0.4166667   0.7216878   0.0684418), wk =   0.0370370
        k(   34) = (   0.4166667  -0.2405626   0.0136884), wk =   0.0370370
        k(   35) = (   0.4166667  -0.2405626   0.0410651), wk =   0.0370370
        k(   36) = (   0.4166667  -0.2405626   0.0684418), wk =   0.0370370

     Dense  grid:    33523 G-vectors     FFT dimensions: (  24,  24, 144)

     Estimated max dynamical RAM per process >       9.66 MB

     Estimated total dynamical RAM >      67.65 MB

     Check: negative core charge=   -0.000003

     Initial potential from superposition of free atoms

     starting charge       7.9999, renormalised to       8.0000

     negative rho (up, down):  9.023E-05 0.000E+00
     Starting wfcs are    8 randomized atomic wfcs

     total cpu time spent up to now is        0.9 secs

     per-process dynamical memory:    12.4 Mb

     Self-consistent Calculation

     iteration #  1     ecut=    60.00 Ry     beta= 0.70
     Davidson diagonalization with overlap
     ethr =  1.00E-02,  avg # of iterations =  7.2

     Threshold (ethr) on eigenvalues was too large:
     Diagonalizing with lowered threshold

     Davidson diagonalization with overlap
     ethr =  8.23E-04,  avg # of iterations =  7.4

     negative rho (up, down):  1.445E-05 0.000E+00

     total cpu time spent up to now is        2.2 secs

     total energy              =     -23.88254392 Ry
     estimated scf accuracy    <       0.19173233 Ry

     iteration #  2     ecut=    60.00 Ry     beta= 0.70
     Davidson diagonalization with overlap
     ethr =  2.40E-03,  avg # of iterations =  2.1

     negative rho (up, down):  4.479E-05 0.000E+00

     total cpu time spent up to now is        2.6 secs

     total energy              =     -23.89308419 Ry
     estimated scf accuracy    <       0.00595748 Ry

     iteration #  3     ecut=    60.00 Ry     beta= 0.70
     Davidson diagonalization with overlap
     c_bands:  1 eigenvalues not converged
     c_bands:  3 eigenvalues not converged
     c_bands:  2 eigenvalues not converged
     c_bands:  4 eigenvalues not converged
     c_bands:  2 eigenvalues not converged
     c_bands:  1 eigenvalues not converged
     c_bands:  1 eigenvalues not converged
     c_bands:  1 eigenvalues not converged
     c_bands:  4 eigenvalues not converged
     c_bands:  3 eigenvalues not converged
     c_bands:  2 eigenvalues not converged
     c_bands:  2 eigenvalues not converged
     c_bands:  1 eigenvalues not converged
     c_bands:  1 eigenvalues not converged
     c_bands:  2 eigenvalues not converged
     c_bands:  1 eigenvalues not converged
     c_bands:  1 eigenvalues not converged
     c_bands:  1 eigenvalues not converged
     c_bands:  3 eigenvalues not converged
     c_bands:  2 eigenvalues not converged
     c_bands:  1 eigenvalues not converged
     c_bands:  1 eigenvalues not converged
     ethr =  7.45E-05,  avg # of iterations = 19.0

     negative rho (up, down):  4.189E-05 0.000E+00

     total cpu time spent up to now is        4.4 secs

     total energy              =     -23.91530473 Ry
     estimated scf accuracy    <       0.00757720 Ry

     iteration #  4     ecut=    60.00 Ry     beta= 0.70
     Davidson diagonalization with overlap
     ethr =  7.45E-05,  avg # of iterations =  4.2

     negative rho (up, down):  5.509E-05 0.000E+00

     total cpu time spent up to now is        4.9 secs

     total energy              =     -23.91818493 Ry
     estimated scf accuracy    <       0.01091579 Ry

     iteration #  5     ecut=    60.00 Ry     beta= 0.70
     Davidson diagonalization with overlap
     ethr =  7.45E-05,  avg # of iterations =  1.2

     negative rho (up, down):  9.873E-05 0.000E+00

     total cpu time spent up to now is        5.2 secs

     total energy              =     -23.91047203 Ry
     estimated scf accuracy    <       0.01481080 Ry

     iteration #  6     ecut=    60.00 Ry     beta= 0.70
     Davidson diagonalization with overlap
     ethr =  7.45E-05,  avg # of iterations =  2.2

     negative rho (up, down):  9.989E-05 0.000E+00

     total cpu time spent up to now is        5.6 secs

     total energy              =     -23.91100114 Ry
     estimated scf accuracy    <       0.00296058 Ry

     iteration #  7     ecut=    60.00 Ry     beta= 0.70
     Davidson diagonalization with overlap
     ethr =  3.70E-05,  avg # of iterations =  2.1

     negative rho (up, down):  9.638E-05 0.000E+00

     total cpu time spent up to now is        6.0 secs

     total energy              =     -23.91138050 Ry
     estimated scf accuracy    <       0.00232892 Ry

     iteration #  8     ecut=    60.00 Ry     beta= 0.70
     Davidson diagonalization with overlap
     ethr =  2.91E-05,  avg # of iterations =  2.4

     negative rho (up, down):  9.711E-05 0.000E+00

     total cpu time spent up to now is        6.4 secs

     total energy              =     -23.91136787 Ry
     estimated scf accuracy    <       0.00245542 Ry

     iteration #  9     ecut=    60.00 Ry     beta= 0.70
     Davidson diagonalization with overlap
     ethr =  2.91E-05,  avg # of iterations =  1.1

     negative rho (up, down):  9.705E-05 0.000E+00

     total cpu time spent up to now is        6.8 secs

     total energy              =     -23.91142370 Ry
     estimated scf accuracy    <       0.00212084 Ry

     iteration # 10     ecut=    60.00 Ry     beta= 0.70
     Davidson diagonalization with overlap
     ethr =  2.65E-05,  avg # of iterations =  1.2

     negative rho (up, down):  1.165E-04 0.000E+00

     total cpu time spent up to now is        7.1 secs

     total energy              =     -23.91058828 Ry
     estimated scf accuracy    <       0.00204036 Ry

     iteration # 11     ecut=    60.00 Ry     beta= 0.70
     Davidson diagonalization with overlap
     ethr =  2.55E-05,  avg # of iterations =  2.6

     negative rho (up, down):  1.206E-04 0.000E+00

     total cpu time spent up to now is        7.5 secs

     total energy              =     -23.91072370 Ry
     estimated scf accuracy    <       0.00030112 Ry

     iteration # 12     ecut=    60.00 Ry     beta= 0.70
     Davidson diagonalization with overlap
     c_bands:  1 eigenvalues not converged
     c_bands:  1 eigenvalues not converged
     c_bands:  2 eigenvalues not converged
     c_bands:  1 eigenvalues not converged
     ethr =  3.76E-06,  avg # of iterations =  9.8

     negative rho (up, down):  1.381E-04 0.000E+00

     total cpu time spent up to now is        8.3 secs

     total energy              =     -23.91108400 Ry
     estimated scf accuracy    <       0.00012558 Ry

     iteration # 13     ecut=    60.00 Ry     beta= 0.70
     Davidson diagonalization with overlap
     c_bands:  2 eigenvalues not converged
     c_bands:  1 eigenvalues not converged
     ethr =  1.57E-06,  avg # of iterations =  7.8

     negative rho (up, down):  1.326E-04 0.000E+00

     total cpu time spent up to now is        9.0 secs

     total energy              =     -23.91105883 Ry
     estimated scf accuracy    <       0.00056820 Ry

     iteration # 14     ecut=    60.00 Ry     beta= 0.70
     Davidson diagonalization with overlap
     ethr =  1.57E-06,  avg # of iterations =  2.0

     negative rho (up, down):  1.291E-04 0.000E+00

     total cpu time spent up to now is        9.4 secs

     total energy              =     -23.91096958 Ry
     estimated scf accuracy    <       0.00027713 Ry

     iteration # 15     ecut=    60.00 Ry     beta= 0.70
     Davidson diagonalization with overlap
     ethr =  1.57E-06,  avg # of iterations =  2.4

     negative rho (up, down):  1.294E-04 0.000E+00

     total cpu time spent up to now is        9.9 secs

     total energy              =     -23.91099952 Ry
     estimated scf accuracy    <       0.00009346 Ry

     iteration # 16     ecut=    60.00 Ry     beta= 0.70
     Davidson diagonalization with overlap
     ethr =  1.17E-06,  avg # of iterations =  1.1

     negative rho (up, down):  1.250E-04 0.000E+00

     total cpu time spent up to now is       10.2 secs

     total energy              =     -23.91093191 Ry
     estimated scf accuracy    <       0.00010812 Ry

     iteration # 17     ecut=    60.00 Ry     beta= 0.70
     Davidson diagonalization with overlap
     ethr =  1.17E-06,  avg # of iterations =  5.3

     negative rho (up, down):  1.249E-04 0.000E+00

     total cpu time spent up to now is       10.8 secs

     total energy              =     -23.91100618 Ry
     estimated scf accuracy    <       0.00010376 Ry

     iteration # 18     ecut=    60.00 Ry     beta= 0.70
     Davidson diagonalization with overlap
     ethr =  1.17E-06,  avg # of iterations =  1.8

     negative rho (up, down):  1.255E-04 0.000E+00

     total cpu time spent up to now is       11.2 secs

     total energy              =     -23.91100463 Ry
     estimated scf accuracy    <       0.00011962 Ry

     iteration # 19     ecut=    60.00 Ry     beta= 0.70
     Davidson diagonalization with overlap
     ethr =  1.17E-06,  avg # of iterations =  1.2

     negative rho (up, down):  1.283E-04 0.000E+00

     total cpu time spent up to now is       11.6 secs

     total energy              =     -23.91101212 Ry
     estimated scf accuracy    <       0.00010933 Ry

     iteration # 20     ecut=    60.00 Ry     beta= 0.70
     Davidson diagonalization with overlap
     ethr =  1.17E-06,  avg # of iterations =  1.1

     negative rho (up, down):  1.269E-04 0.000E+00

     total cpu time spent up to now is       12.0 secs

     total energy              =     -23.91095496 Ry
     estimated scf accuracy    <       0.00012377 Ry

     iteration # 21     ecut=    60.00 Ry     beta= 0.70
     Davidson diagonalization with overlap
     ethr =  1.17E-06,  avg # of iterations =  1.2

     negative rho (up, down):  1.265E-04 0.000E+00

     total cpu time spent up to now is       12.4 secs

     total energy              =     -23.91095972 Ry
     estimated scf accuracy    <       0.00001591 Ry

     iteration # 22     ecut=    60.00 Ry     beta= 0.70
     Davidson diagonalization with overlap
     ethr =  1.99E-07,  avg # of iterations =  2.9

     negative rho (up, down):  1.262E-04 0.000E+00

     total cpu time spent up to now is       12.8 secs

     total energy              =     -23.91096327 Ry
     estimated scf accuracy    <       0.00000802 Ry

     iteration # 23     ecut=    60.00 Ry     beta= 0.70
     Davidson diagonalization with overlap
     ethr =  1.00E-07,  avg # of iterations =  2.5

     negative rho (up, down):  1.260E-04 0.000E+00

     total cpu time spent up to now is       13.2 secs

     total energy              =     -23.91096612 Ry
     estimated scf accuracy    <       0.00000638 Ry

     iteration # 24     ecut=    60.00 Ry     beta= 0.70
     Davidson diagonalization with overlap
     ethr =  7.98E-08,  avg # of iterations =  1.2

     negative rho (up, down):  1.271E-04 0.000E+00

     total cpu time spent up to now is       13.6 secs

     total energy              =     -23.91096178 Ry
     estimated scf accuracy    <       0.00000966 Ry

     iteration # 25     ecut=    60.00 Ry     beta= 0.70
     Davidson diagonalization with overlap
     ethr =  7.98E-08,  avg # of iterations =  1.8

     negative rho (up, down):  1.273E-04 0.000E+00

     total cpu time spent up to now is       14.0 secs

     total energy              =     -23.91096239 Ry
     estimated scf accuracy    <       0.00000117 Ry

     iteration # 26     ecut=    60.00 Ry     beta= 0.70
     Davidson diagonalization with overlap
     ethr =  1.46E-08,  avg # of iterations =  4.1

     negative rho (up, down):  1.271E-04 0.000E+00

     total cpu time spent up to now is       14.6 secs

     total energy              =     -23.91096326 Ry
     estimated scf accuracy    <       0.00000018 Ry

     iteration # 27     ecut=    60.00 Ry     beta= 0.70
     Davidson diagonalization with overlap
     ethr =  2.20E-09,  avg # of iterations =  3.5

     negative rho (up, down):  1.273E-04 0.000E+00

     total cpu time spent up to now is       15.1 secs

     total energy              =     -23.91096325 Ry
     estimated scf accuracy    <       0.00000017 Ry

     iteration # 28     ecut=    60.00 Ry     beta= 0.70
     Davidson diagonalization with overlap
     ethr =  2.14E-09,  avg # of iterations =  1.8

     negative rho (up, down):  1.272E-04 0.000E+00

     total cpu time spent up to now is       15.5 secs

     End of self-consistent calculation

          k = 0.0833 0.1443 0.0137 (  4174 PWs)   bands (ev):

   -20.7577  -8.7643  -6.4703  -5.8058   2.0905   2.8679   3.2258   5.0691

          k = 0.0833 0.1443 0.0411 (  4179 PWs)   bands (ev):

   -20.7577  -8.7643  -6.4703  -5.8058   2.1157   2.7048   3.4743   4.7411

          k = 0.0833 0.1443 0.0684 (  4176 PWs)   bands (ev):

   -20.7577  -8.7643  -6.4703  -5.8058   2.1471   2.5936   3.7284   4.4258

          k = 0.0833 0.3368 0.0137 (  4175 PWs)   bands (ev):

   -19.1430 -10.2481  -7.6898  -6.8789   4.2110   4.3286   5.1403   5.4884

          k = 0.0833 0.3368 0.0411 (  4178 PWs)   bands (ev):

   -19.1430 -10.2481  -7.6898  -6.8789   4.2103   4.3507   4.9847   5.7296

          k = 0.0833 0.3368 0.0684 (  4179 PWs)   bands (ev):

   -19.1430 -10.2481  -7.6898  -6.8789   4.2098   4.3769   4.8815   5.9766

          k = 0.0833 0.5292 0.0137 (  4192 PWs)   bands (ev):

   -16.4021 -14.3119  -8.6530  -4.1880   0.2400   6.4208   8.3185   9.1103

          k = 0.0833 0.5292 0.0411 (  4190 PWs)   bands (ev):

   -16.4021 -14.3119  -8.6530  -4.1880   0.2400   6.4208   8.3340   8.9997

          k = 0.0833 0.5292 0.0684 (  4187 PWs)   bands (ev):

   -16.4021 -14.3119  -8.6530  -4.1880   0.2400   6.4208   8.3513   8.9190

          k = 0.0833-0.4330 0.0137 (  4185 PWs)   bands (ev):

   -17.8826 -12.3699  -8.3246  -5.4983   2.0103   6.0923   6.6038   6.9208

          k = 0.0833-0.4330 0.0411 (  4192 PWs)   bands (ev):

   -17.8826 -12.3699  -8.3246  -5.4983   2.0103   6.1097   6.6058   6.7828

          k = 0.0833-0.4330 0.0684 (  4186 PWs)   bands (ev):

   -17.8826 -12.3699  -8.3246  -5.4983   2.0103   6.1297   6.6120   6.6844

          k = 0.0833-0.2406 0.0137 (  4178 PWs)   bands (ev):

   -20.1076  -8.1772  -7.9957  -6.8036   2.9874   3.7694   4.1303   5.9484

          k = 0.0833-0.2406 0.0411 (  4177 PWs)   bands (ev):

   -20.1076  -8.1772  -7.9957  -6.8036   3.0113   3.6108   4.3738   5.6310

          k = 0.0833-0.2406 0.0684 (  4177 PWs)   bands (ev):

   -20.1076  -8.1772  -7.9957  -6.8036   3.0407   3.5029   4.6234   5.3242

          k = 0.0833-0.0481 0.0137 (  4170 PWs)   bands (ev):

   -21.0846  -9.1543  -5.4390  -5.1285   1.6417   2.4158   2.7732   4.6232

          k = 0.0833-0.0481 0.0411 (  4173 PWs)   bands (ev):

   -21.0846  -9.1543  -5.4390  -5.1285   1.6675   2.2509   3.0234   4.2938

          k = 0.0833-0.0481 0.0684 (  4179 PWs)   bands (ev):

   -21.0846  -9.1543  -5.4390  -5.1285   1.7000   2.1382   3.2790   3.9768

          k = 0.2500 0.4330 0.0137 (  4155 PWs)   bands (ev):

   -16.9671 -12.2640 -10.7050  -4.4602   1.1043   7.4276   8.0903   8.6190

          k = 0.2500 0.4330 0.0411 (  4150 PWs)   bands (ev):

   -16.9671 -12.2640 -10.7050  -4.4602   1.1043   7.4440   8.0081   8.7422

          k = 0.2500 0.4330 0.0684 (  4165 PWs)   bands (ev):

   -16.9671 -12.2640 -10.7050  -4.4602   1.1043   7.4628   7.9400   8.8616

          k = 0.2500 0.6255 0.0137 (  4164 PWs)   bands (ev):

   -15.5441 -13.6859 -11.4120  -3.0733  -0.4172   9.1529   9.5452  10.4815

          k = 0.2500 0.6255 0.0411 (  4158 PWs)   bands (ev):

   -15.5441 -13.6859 -11.4120  -3.0733  -0.4172   9.1510   9.5556  10.4842

          k = 0.2500 0.6255 0.0684 (  4154 PWs)   bands (ev):

   -15.5441 -13.6859 -11.4120  -3.0733  -0.4172   9.1492   9.5665  10.4876

          k = 0.2500-0.3368 0.0137 (  4174 PWs)   bands (ev):

   -18.1954 -11.2310  -9.2210  -5.8039   2.7203   5.6657   6.4455   6.8365

          k = 0.2500-0.3368 0.0411 (  4176 PWs)   bands (ev):

   -18.1954 -11.2310  -9.2210  -5.8039   2.7203   5.6855   6.3097   7.0506

          k = 0.2500-0.3368 0.0684 (  4171 PWs)   bands (ev):

   -18.1953 -11.2310  -9.2210  -5.8039   2.7203   5.7089   6.2148   7.2696

          k = 0.2500-0.1443 0.0137 (  4183 PWs)   bands (ev):

   -19.7844  -9.1689  -7.6194  -6.8010   3.4341   4.2112   4.5784   5.5399

          k = 0.2500-0.1443 0.0411 (  4176 PWs)   bands (ev):

   -19.7844  -9.1689  -7.6194  -6.8010   3.4573   4.0584   4.8100   5.5456

          k = 0.2500-0.1443 0.0684 (  4174 PWs)   bands (ev):

   -19.7844  -9.1689  -7.6194  -6.8010   3.4855   3.9534   5.0373   5.5740

          k = 0.4167 0.7217 0.0137 (  4180 PWs)   bands (ev):

   -15.5823 -14.5790  -9.9809  -3.4826  -0.2630   8.2257   9.8764   9.9118

          k = 0.4167 0.7217 0.0411 (  4184 PWs)   bands (ev):

   -15.5823 -14.5790  -9.9810  -3.4826  -0.2630   8.2257   9.8708   9.9202

          k = 0.4167 0.7217 0.0684 (  4181 PWs)   bands (ev):

   -15.5823 -14.5790  -9.9810  -3.4826  -0.2630   8.2257   9.8678   9.9291

          k = 0.4167-0.2406 0.0137 (  4181 PWs)   bands (ev):

   -17.2697 -13.4700  -8.0076  -4.9265   1.0623   5.7621   7.0100   7.8250

          k = 0.4167-0.2406 0.0411 (  4185 PWs)   bands (ev):

   -17.2697 -13.4700  -8.0076  -4.9265   1.0623   5.7621   7.0282   7.6871

          k = 0.4167-0.2406 0.0684 (  4189 PWs)   bands (ev):

   -17.2697 -13.4700  -8.0076  -4.9265   1.0623   5.7621   7.0493   7.5933

     the Fermi energy is    -1.7927 ev

!    total energy              =     -23.91096327 Ry
     estimated scf accuracy    <          1.8E-09 Ry
     smearing contrib. (-TS)   =       0.00000000 Ry
     internal energy E=F+TS    =     -23.91096327 Ry

     The total energy is F=E-TS. E is the sum of the following terms:
     one-electron contribution =    -157.39754364 Ry
     hartree contribution      =      80.16018832 Ry
     xc contribution           =      -8.30325506 Ry
     ewald contribution        =      61.62964711 Ry

     convergence has been achieved in  28 iterations

     negative rho (up, down):  1.272E-04 0.000E+00

     Forces acting on atoms (cartesian axes, Ry/au):

     atom    1 type  1   force =     0.00000000    0.00000000    0.00000000
     atom    2 type  1   force =     0.00000000    0.00000000    0.00000000

     Total force =     0.000000     Total SCF correction =     0.000000


     Computing stress (Cartesian axis) and pressure


     negative rho (up, down):  1.272E-04 0.000E+00
          total   stress  (Ry/bohr**3)                   (kbar)     P=       -0.46
  -0.00000276   0.00000000   0.00000000           -0.41        0.00        0.00
   0.00000000  -0.00000276  -0.00000000            0.00       -0.41       -0.00
   0.00000000  -0.00000000  -0.00000380            0.00       -0.00       -0.56


     Writing all to output data dir /home/rfa/Skripsi/DFT/dft-graphene/tmp/gr-1L.save/ :
     XML data file, charge density, pseudopotentials, collected wavefunctions

     init_run     :      0.61s CPU      0.83s WALL (       1 calls)
     electrons    :     25.91s CPU     14.59s WALL (       1 calls)
     forces       :      0.06s CPU      0.04s WALL (       1 calls)
     stress       :      0.22s CPU      0.13s WALL (       1 calls)

     Called by init_run:
     wfcinit      :      0.25s CPU      0.13s WALL (       1 calls)
     potinit      :      0.01s CPU      0.01s WALL (       1 calls)
     hinit0       :      0.32s CPU      0.65s WALL (       1 calls)

     Called by electrons:
     c_bands      :     21.76s CPU     12.10s WALL (      29 calls)
     sum_band     :      3.50s CPU      1.92s WALL (      29 calls)
     v_of_rho     :      0.20s CPU      0.21s WALL (      29 calls)
     newd         :      0.22s CPU      0.20s WALL (      29 calls)
     mix_rho      :      0.19s CPU      0.12s WALL (      29 calls)

     Called by c_bands:
     init_us_2    :      0.59s CPU      0.31s WALL (    2196 calls)
     cegterg      :     20.63s CPU     11.41s WALL (    1044 calls)

     Called by *egterg:
     cdiaghg      :      1.04s CPU      0.58s WALL (    4757 calls)
     h_psi        :     17.00s CPU      9.44s WALL (    4829 calls)
     s_psi        :      0.26s CPU      0.13s WALL (    4829 calls)
     g_psi        :      0.17s CPU      0.08s WALL (    3749 calls)

     Called by h_psi:
     h_psi:calbec :      1.05s CPU      0.57s WALL (    4829 calls)
     vloc_psi     :     15.26s CPU      8.47s WALL (    4829 calls)
     add_vuspsi   :      0.44s CPU      0.24s WALL (    4829 calls)

     General routines
     calbec       :      1.21s CPU      0.65s WALL (    6485 calls)
     fft          :      0.39s CPU      0.72s WALL (     345 calls)
     ffts         :      0.02s CPU      0.01s WALL (      29 calls)
     fftw         :     15.29s CPU      8.53s WALL (   57386 calls)

     Parallel routines

     PWSCF        :     26.91s CPU     16.00s WALL


   This run was terminated on:   6: 2:21  22Apr2025            

=------------------------------------------------------------------------------=
   JOB DONE.
=------------------------------------------------------------------------------=
