
     Program PWSCF v.7.4.1 starts on 22Apr2025 at  6: 3:23 

     This program is part of the open-source Quantum ESPRESSO suite
     for quantum simulation of materials; please cite
         "P. Giannozzi et al., J. Phys.:Condens. Matter 21 395502 (2009);
         "P. Giannozzi et al., J. Phys.:Condens. Matter 29 465901 (2017);
         "P. Giannozzi et al., J. Chem. Phys. 152 154105 (2020);
          URL http://www.quantum-espresso.org", 
     in publications or presentations arising from this work. More details at
     http://www.quantum-espresso.org/quote

     Parallel version (MPI), running on     7 processors

     MPI processes distributed on     1 nodes
     12126 MiB available memory on the printing compute node when the environment starts

     Waiting for input...
     Reading input from standard input

     Current dimensions of program PWSCF are:
     Max number of different atomic species (ntypx) = 10
     Max number of k-points (npk) =  40000
     Max angular momentum in pseudopotentials (lmaxx) =  4

     R & G space division:  proc/nbgrp/npool/nimage =       7
     Subspace diagonalization in iterative solution of the eigenvalue problem:
     a serial algorithm will be used


     Parallelization info
     --------------------
     sticks:   dense  smooth     PW     G-vecs:    dense   smooth      PW
     Min          51      51     15                 4783     4783     817
     Max          52      52     16                 4800     4800     840
     Sum         361     361    109                33523    33523    5815

     Using Slab Decomposition



     bravais-lattice index     =            4
     lattice parameter (alat)  =       4.6561  a.u.
     unit-cell volume          =     532.1899 (a.u.)^3
     number of atoms/cell      =            2
     number of atomic types    =            1
     number of electrons       =         8.00
     number of Kohn-Sham states=            8
     kinetic-energy cutoff     =      60.0000  Ry
     charge density cutoff     =     240.0000  Ry
     scf convergence threshold =      1.0E-08
     mixing beta               =       0.7000
     number of iterations used =            8  plain     mixing
     Exchange-correlation= PBE
                           (   1   4   3   4   0   0   0)

     celldm(1)=   4.656107  celldm(2)=   0.000000  celldm(3)=   6.087896
     celldm(4)=   0.000000  celldm(5)=   0.000000  celldm(6)=   0.000000

     crystal axes: (cart. coord. in units of alat)
               a(1) = (   1.000000   0.000000   0.000000 )  
               a(2) = (  -0.500000   0.866025   0.000000 )  
               a(3) = (   0.000000   0.000000   6.087896 )  

     reciprocal axes: (cart. coord. in units 2 pi/alat)
               b(1) = (  1.000000  0.577350 -0.000000 )  
               b(2) = (  0.000000  1.154701  0.000000 )  
               b(3) = (  0.000000 -0.000000  0.164260 )  


     PseudoPot. # 1 for C  read from file:
     /home/rfa/Skripsi/DFT/dft-graphene/pseudo/C.pbe-n-rrkjus_psl.0.1.UPF
     MD5 check sum: 96a6a315177d77e6c95bf6fd3870f9e3
     Pseudo is Ultrasoft + core correction, Zval =  4.0
     Generated using &quot;atomic&quot; code by A. Dal Corso  v.6.3MaX
     Using radial grid of 1073 points,  4 beta functions with: 
                l(1) =   0
                l(2) =   0
                l(3) =   1
                l(4) =   1
     Q(r) pseudized with 0 coefficients 


     atomic species   valence    mass     pseudopotential
     C                 4.00    12.01070     C ( 1.00)

     24 Sym. Ops., with inversion, found



   Cartesian axes

     site n.     atom                  positions (alat units)
         1        C      tau(   1) = (   0.0000000   0.5773503   3.0439478  )
         2        C      tau(   2) = (   0.5000000   0.2886751   3.0439478  )

     number of k points=   133  Marzari-Vanderbilt smearing, width (Ry)=  0.0200

     Number of k-points >= 100: set verbosity='high' to print them.

     Dense  grid:    33523 G-vectors     FFT dimensions: (  24,  24, 144)

     Estimated max dynamical RAM per process >      16.72 MB

     Estimated total dynamical RAM >     117.03 MB

     Check: negative core charge=   -0.000003

     Initial potential from superposition of free atoms

     starting charge       7.9999, renormalised to       8.0000

     negative rho (up, down):  9.023E-05 0.000E+00
     Starting wfcs are    8 randomized atomic wfcs

     total cpu time spent up to now is        1.3 secs

     per-process dynamical memory:    20.2 Mb

     Self-consistent Calculation

     iteration #  1     ecut=    60.00 Ry     beta= 0.70
     Davidson diagonalization with overlap
     ethr =  1.00E-02,  avg # of iterations =  7.4

     Threshold (ethr) on eigenvalues was too large:
     Diagonalizing with lowered threshold

     Davidson diagonalization with overlap
     ethr =  8.48E-04,  avg # of iterations =  6.4

     negative rho (up, down):  1.542E-05 0.000E+00

     total cpu time spent up to now is        6.1 secs

     total energy              =     -23.88138706 Ry
     estimated scf accuracy    <       0.19246869 Ry

     iteration #  2     ecut=    60.00 Ry     beta= 0.70
     Davidson diagonalization with overlap
     ethr =  2.41E-03,  avg # of iterations =  2.0

     negative rho (up, down):  4.675E-05 0.000E+00

     total cpu time spent up to now is        7.5 secs

     total energy              =     -23.89170189 Ry
     estimated scf accuracy    <       0.00605794 Ry

     iteration #  3     ecut=    60.00 Ry     beta= 0.70
     Davidson diagonalization with overlap
     c_bands:  1 eigenvalues not converged
     c_bands:  1 eigenvalues not converged
     c_bands:  1 eigenvalues not converged
     c_bands:  1 eigenvalues not converged
     c_bands:  2 eigenvalues not converged
     c_bands:  2 eigenvalues not converged
     c_bands:  2 eigenvalues not converged
     c_bands:  2 eigenvalues not converged
     c_bands:  1 eigenvalues not converged
     c_bands:  3 eigenvalues not converged
     c_bands:  3 eigenvalues not converged
     c_bands:  3 eigenvalues not converged
     c_bands:  3 eigenvalues not converged
     c_bands:  2 eigenvalues not converged
     c_bands:  1 eigenvalues not converged
     c_bands:  1 eigenvalues not converged
     c_bands:  3 eigenvalues not converged
     c_bands:  3 eigenvalues not converged
     c_bands:  3 eigenvalues not converged
     c_bands:  2 eigenvalues not converged
     c_bands:  2 eigenvalues not converged
     c_bands:  1 eigenvalues not converged
     c_bands:  2 eigenvalues not converged
     c_bands:  2 eigenvalues not converged
     c_bands:  1 eigenvalues not converged
     c_bands:  1 eigenvalues not converged
     c_bands:  1 eigenvalues not converged
     c_bands:  1 eigenvalues not converged
     c_bands:  1 eigenvalues not converged
     c_bands:  3 eigenvalues not converged
     c_bands:  3 eigenvalues not converged
     c_bands:  5 eigenvalues not converged
     c_bands:  2 eigenvalues not converged
     c_bands:  3 eigenvalues not converged
     c_bands:  1 eigenvalues not converged
     c_bands:  2 eigenvalues not converged
     c_bands:  1 eigenvalues not converged
     c_bands:  2 eigenvalues not converged
     c_bands:  3 eigenvalues not converged
     c_bands:  2 eigenvalues not converged
     c_bands:  1 eigenvalues not converged
     c_bands:  2 eigenvalues not converged
     c_bands:  3 eigenvalues not converged
     c_bands:  3 eigenvalues not converged
     c_bands:  3 eigenvalues not converged
     c_bands:  3 eigenvalues not converged
     c_bands:  1 eigenvalues not converged
     c_bands:  1 eigenvalues not converged
     c_bands:  1 eigenvalues not converged
     c_bands:  1 eigenvalues not converged
     c_bands:  1 eigenvalues not converged
     c_bands:  1 eigenvalues not converged
     c_bands:  1 eigenvalues not converged
     c_bands:  1 eigenvalues not converged
     c_bands:  1 eigenvalues not converged
     c_bands:  1 eigenvalues not converged
     c_bands:  2 eigenvalues not converged
     c_bands:  2 eigenvalues not converged
     c_bands:  2 eigenvalues not converged
     c_bands:  2 eigenvalues not converged
     c_bands:  1 eigenvalues not converged
     c_bands:  1 eigenvalues not converged
     c_bands:  1 eigenvalues not converged
     c_bands:  1 eigenvalues not converged
     c_bands:  2 eigenvalues not converged
     c_bands:  1 eigenvalues not converged
     c_bands:  1 eigenvalues not converged
     c_bands:  1 eigenvalues not converged
     c_bands:  1 eigenvalues not converged
     c_bands:  1 eigenvalues not converged
     c_bands:  1 eigenvalues not converged
     c_bands:  1 eigenvalues not converged
     c_bands:  1 eigenvalues not converged
     c_bands:  2 eigenvalues not converged
     c_bands:  2 eigenvalues not converged
     c_bands:  2 eigenvalues not converged
     c_bands:  3 eigenvalues not converged
     c_bands:  1 eigenvalues not converged
     c_bands:  2 eigenvalues not converged
     c_bands:  2 eigenvalues not converged
     c_bands:  2 eigenvalues not converged
     c_bands:  2 eigenvalues not converged
     c_bands:  2 eigenvalues not converged
     c_bands:  1 eigenvalues not converged
     c_bands:  1 eigenvalues not converged
     c_bands:  1 eigenvalues not converged
     c_bands:  1 eigenvalues not converged
     c_bands:  2 eigenvalues not converged
     ethr =  7.57E-05,  avg # of iterations = 19.3

     negative rho (up, down):  4.506E-05 0.000E+00

     total cpu time spent up to now is       14.4 secs

     total energy              =     -23.91403437 Ry
     estimated scf accuracy    <       0.00788392 Ry

     iteration #  4     ecut=    60.00 Ry     beta= 0.70
     Davidson diagonalization with overlap
     ethr =  7.57E-05,  avg # of iterations =  4.5

     negative rho (up, down):  4.599E-05 0.000E+00

     total cpu time spent up to now is       16.2 secs

     total energy              =     -23.91982504 Ry
     estimated scf accuracy    <       0.01058053 Ry

     iteration #  5     ecut=    60.00 Ry     beta= 0.70
     Davidson diagonalization with overlap
     ethr =  7.57E-05,  avg # of iterations =  1.7

     negative rho (up, down):  4.958E-05 0.000E+00

     total cpu time spent up to now is       17.6 secs

     total energy              =     -23.91364136 Ry
     estimated scf accuracy    <       0.01984482 Ry

     iteration #  6     ecut=    60.00 Ry     beta= 0.70
     Davidson diagonalization with overlap
     ethr =  7.57E-05,  avg # of iterations =  1.7

     negative rho (up, down):  6.441E-05 0.000E+00

     total cpu time spent up to now is       18.9 secs

     total energy              =     -23.91182411 Ry
     estimated scf accuracy    <       0.01080979 Ry

     iteration #  7     ecut=    60.00 Ry     beta= 0.70
     Davidson diagonalization with overlap
     ethr =  7.57E-05,  avg # of iterations =  1.2

     negative rho (up, down):  6.049E-05 0.000E+00

     total cpu time spent up to now is       20.3 secs

     total energy              =     -23.91244419 Ry
     estimated scf accuracy    <       0.00635222 Ry

     iteration #  8     ecut=    60.00 Ry     beta= 0.70
     Davidson diagonalization with overlap
     ethr =  7.57E-05,  avg # of iterations =  1.2

     negative rho (up, down):  6.269E-05 0.000E+00

     total cpu time spent up to now is       21.5 secs

     total energy              =     -23.91220238 Ry
     estimated scf accuracy    <       0.00722789 Ry

     iteration #  9     ecut=    60.00 Ry     beta= 0.70
     Davidson diagonalization with overlap
     ethr =  7.57E-05,  avg # of iterations =  1.0

     negative rho (up, down):  5.667E-05 0.000E+00

     total cpu time spent up to now is       22.8 secs

     total energy              =     -23.91323728 Ry
     estimated scf accuracy    <       0.00648738 Ry

     iteration # 10     ecut=    60.00 Ry     beta= 0.70
     Davidson diagonalization with overlap
     ethr =  7.57E-05,  avg # of iterations =  1.1

     negative rho (up, down):  7.532E-05 0.000E+00

     total cpu time spent up to now is       24.1 secs

     total energy              =     -23.91081839 Ry
     estimated scf accuracy    <       0.00835894 Ry

     iteration # 11     ecut=    60.00 Ry     beta= 0.70
     Davidson diagonalization with overlap
     ethr =  7.57E-05,  avg # of iterations =  1.1

     negative rho (up, down):  9.294E-05 0.000E+00

     total cpu time spent up to now is       25.4 secs

     total energy              =     -23.90970049 Ry
     estimated scf accuracy    <       0.00382424 Ry

     iteration # 12     ecut=    60.00 Ry     beta= 0.70
     Davidson diagonalization with overlap
     ethr =  4.78E-05,  avg # of iterations =  1.8

     negative rho (up, down):  1.457E-04 0.000E+00

     total cpu time spent up to now is       26.9 secs

     total energy              =     -23.90945421 Ry
     estimated scf accuracy    <       0.00111864 Ry

     iteration # 13     ecut=    60.00 Ry     beta= 0.70
     Davidson diagonalization with overlap
     c_bands:  1 eigenvalues not converged
     c_bands:  1 eigenvalues not converged
     c_bands:  1 eigenvalues not converged
     c_bands:  1 eigenvalues not converged
     c_bands:  1 eigenvalues not converged
     c_bands:  1 eigenvalues not converged
     c_bands:  1 eigenvalues not converged
     c_bands:  1 eigenvalues not converged
     c_bands:  1 eigenvalues not converged
     c_bands:  1 eigenvalues not converged
     c_bands:  1 eigenvalues not converged
     ethr =  1.40E-05,  avg # of iterations =  7.9

     negative rho (up, down):  1.470E-04 0.000E+00

     total cpu time spent up to now is       29.4 secs

     total energy              =     -23.91010335 Ry
     estimated scf accuracy    <       0.00043398 Ry

     iteration # 14     ecut=    60.00 Ry     beta= 0.70
     Davidson diagonalization with overlap
     c_bands:  2 eigenvalues not converged
     c_bands:  2 eigenvalues not converged
     c_bands:  1 eigenvalues not converged
     c_bands:  1 eigenvalues not converged
     ethr =  5.42E-06,  avg # of iterations =  5.6

     negative rho (up, down):  1.434E-04 0.000E+00

     total cpu time spent up to now is       31.5 secs

     total energy              =     -23.91017394 Ry
     estimated scf accuracy    <       0.00067619 Ry

     iteration # 15     ecut=    60.00 Ry     beta= 0.70
     Davidson diagonalization with overlap
     c_bands:  1 eigenvalues not converged
     ethr =  5.42E-06,  avg # of iterations =  1.8

     negative rho (up, down):  1.396E-04 0.000E+00

     total cpu time spent up to now is       32.9 secs

     total energy              =     -23.91012315 Ry
     estimated scf accuracy    <       0.00059520 Ry

     iteration # 16     ecut=    60.00 Ry     beta= 0.70
     Davidson diagonalization with overlap
     ethr =  5.42E-06,  avg # of iterations =  1.1

     negative rho (up, down):  1.368E-04 0.000E+00

     total cpu time spent up to now is       34.2 secs

     total energy              =     -23.91008146 Ry
     estimated scf accuracy    <       0.00049027 Ry

     iteration # 17     ecut=    60.00 Ry     beta= 0.70
     Davidson diagonalization with overlap
     ethr =  5.42E-06,  avg # of iterations =  1.1

     negative rho (up, down):  1.383E-04 0.000E+00

     total cpu time spent up to now is       35.5 secs

     total energy              =     -23.91013951 Ry
     estimated scf accuracy    <       0.00040645 Ry

     iteration # 18     ecut=    60.00 Ry     beta= 0.70
     Davidson diagonalization with overlap
     ethr =  5.08E-06,  avg # of iterations =  1.1

     negative rho (up, down):  1.377E-04 0.000E+00

     total cpu time spent up to now is       36.8 secs

     total energy              =     -23.91005786 Ry
     estimated scf accuracy    <       0.00049655 Ry

     iteration # 19     ecut=    60.00 Ry     beta= 0.70
     Davidson diagonalization with overlap
     ethr =  5.08E-06,  avg # of iterations =  1.1

     negative rho (up, down):  1.326E-04 0.000E+00

     total cpu time spent up to now is       38.1 secs

     total energy              =     -23.90997719 Ry
     estimated scf accuracy    <       0.00034652 Ry

     iteration # 20     ecut=    60.00 Ry     beta= 0.70
     Davidson diagonalization with overlap
     ethr =  4.33E-06,  avg # of iterations =  1.2

     negative rho (up, down):  1.234E-04 0.000E+00

     total cpu time spent up to now is       39.4 secs

     total energy              =     -23.90988436 Ry
     estimated scf accuracy    <       0.00018477 Ry

     iteration # 21     ecut=    60.00 Ry     beta= 0.70
     Davidson diagonalization with overlap
     ethr =  2.31E-06,  avg # of iterations =  2.7

     negative rho (up, down):  1.258E-04 0.000E+00

     total cpu time spent up to now is       40.9 secs

     total energy              =     -23.90992158 Ry
     estimated scf accuracy    <       0.00001403 Ry

     iteration # 22     ecut=    60.00 Ry     beta= 0.70
     Davidson diagonalization with overlap
     ethr =  1.75E-07,  avg # of iterations =  3.8

     negative rho (up, down):  1.290E-04 0.000E+00

     total cpu time spent up to now is       42.8 secs

     total energy              =     -23.90992915 Ry
     estimated scf accuracy    <       0.00002881 Ry

     iteration # 23     ecut=    60.00 Ry     beta= 0.70
     Davidson diagonalization with overlap
     ethr =  1.75E-07,  avg # of iterations =  1.5

     negative rho (up, down):  1.274E-04 0.000E+00

     total cpu time spent up to now is       44.1 secs

     total energy              =     -23.90991576 Ry
     estimated scf accuracy    <       0.00002833 Ry

     iteration # 24     ecut=    60.00 Ry     beta= 0.70
     Davidson diagonalization with overlap
     ethr =  1.75E-07,  avg # of iterations =  2.0

     negative rho (up, down):  1.258E-04 0.000E+00

     total cpu time spent up to now is       45.6 secs

     total energy              =     -23.90991660 Ry
     estimated scf accuracy    <       0.00000386 Ry

     iteration # 25     ecut=    60.00 Ry     beta= 0.70
     Davidson diagonalization with overlap
     ethr =  4.83E-08,  avg # of iterations =  4.8

     negative rho (up, down):  1.260E-04 0.000E+00

     total cpu time spent up to now is       47.9 secs

     total energy              =     -23.90992066 Ry
     estimated scf accuracy    <       0.00001480 Ry

     iteration # 26     ecut=    60.00 Ry     beta= 0.70
     Davidson diagonalization with overlap
     ethr =  4.83E-08,  avg # of iterations =  1.5

     negative rho (up, down):  1.265E-04 0.000E+00

     total cpu time spent up to now is       49.3 secs

     total energy              =     -23.90991953 Ry
     estimated scf accuracy    <       0.00000478 Ry

     iteration # 27     ecut=    60.00 Ry     beta= 0.70
     Davidson diagonalization with overlap
     ethr =  4.83E-08,  avg # of iterations =  2.1

     negative rho (up, down):  1.268E-04 0.000E+00

     total cpu time spent up to now is       50.8 secs

     total energy              =     -23.90991977 Ry
     estimated scf accuracy    <       0.00000163 Ry

     iteration # 28     ecut=    60.00 Ry     beta= 0.70
     Davidson diagonalization with overlap
     ethr =  2.04E-08,  avg # of iterations =  2.1

     negative rho (up, down):  1.272E-04 0.000E+00

     total cpu time spent up to now is       52.2 secs

     total energy              =     -23.90991955 Ry
     estimated scf accuracy    <       0.00000084 Ry

     iteration # 29     ecut=    60.00 Ry     beta= 0.70
     Davidson diagonalization with overlap
     ethr =  1.05E-08,  avg # of iterations =  2.8

     negative rho (up, down):  1.273E-04 0.000E+00

     total cpu time spent up to now is       53.8 secs

     total energy              =     -23.90991982 Ry
     estimated scf accuracy    <       0.00000003 Ry

     iteration # 30     ecut=    60.00 Ry     beta= 0.70
     Davidson diagonalization with overlap
     ethr =  3.92E-10,  avg # of iterations =  5.2

     negative rho (up, down):  1.272E-04 0.000E+00

     total cpu time spent up to now is       56.1 secs

     total energy              =     -23.90991996 Ry
     estimated scf accuracy    <       0.00000001 Ry

     iteration # 31     ecut=    60.00 Ry     beta= 0.70
     Davidson diagonalization with overlap
     ethr =  1.41E-10,  avg # of iterations =  2.8

     negative rho (up, down):  1.272E-04 0.000E+00

     total cpu time spent up to now is       57.7 secs

     End of self-consistent calculation

     Number of k-points >= 100: set verbosity='high' to print the bands.

     the Fermi energy is    -1.6761 ev

!    total energy              =     -23.90991996 Ry
     estimated scf accuracy    <          8.4E-09 Ry
     smearing contrib. (-TS)   =      -0.00018232 Ry
     internal energy E=F+TS    =     -23.90973763 Ry

     The total energy is F=E-TS. E is the sum of the following terms:
     one-electron contribution =    -157.39688446 Ry
     hartree contribution      =      80.16089788 Ry
     xc contribution           =      -8.30339817 Ry
     ewald contribution        =      61.62964711 Ry

     convergence has been achieved in  31 iterations

     negative rho (up, down):  1.272E-04 0.000E+00

     Forces acting on atoms (cartesian axes, Ry/au):

     atom    1 type  1   force =     0.00000000    0.00000000    0.00000000
     atom    2 type  1   force =     0.00000000    0.00000000    0.00000000

     Total force =     0.000000     Total SCF correction =     0.000000


     Computing stress (Cartesian axis) and pressure


     negative rho (up, down):  1.272E-04 0.000E+00
          total   stress  (Ry/bohr**3)                   (kbar)     P=       -0.20
  -0.00000053  -0.00000000   0.00000000           -0.08       -0.00        0.00
  -0.00000000  -0.00000053  -0.00000000           -0.00       -0.08       -0.00
   0.00000000  -0.00000000  -0.00000300            0.00       -0.00       -0.44


     Writing all to output data dir /home/rfa/Skripsi/DFT/dft-graphene/tmp/gr-1L.save/ :
     XML data file, charge density, pseudopotentials, collected wavefunctions

     init_run     :      1.26s CPU      1.20s WALL (       1 calls)
     electrons    :    101.37s CPU     56.47s WALL (       1 calls)
     forces       :      0.14s CPU      0.08s WALL (       1 calls)
     stress       :      0.66s CPU      0.36s WALL (       1 calls)

     Called by init_run:
     wfcinit      :      0.88s CPU      0.49s WALL (       1 calls)
     potinit      :      0.01s CPU      0.01s WALL (       1 calls)
     hinit0       :      0.34s CPU      0.65s WALL (       1 calls)

     Called by electrons:
     c_bands      :     87.44s CPU     48.56s WALL (      32 calls)
     sum_band     :     13.20s CPU      7.32s WALL (      32 calls)
     v_of_rho     :      0.23s CPU      0.23s WALL (      32 calls)
     newd         :      0.23s CPU      0.21s WALL (      32 calls)
     mix_rho      :      0.23s CPU      0.12s WALL (      32 calls)

     Called by c_bands:
     init_us_2    :      2.42s CPU      1.28s WALL (    8911 calls)
     cegterg      :     82.80s CPU     45.75s WALL (    4256 calls)

     Called by *egterg:
     cdiaghg      :      4.18s CPU      2.27s WALL (   17786 calls)
     h_psi        :     68.64s CPU     38.08s WALL (   18052 calls)
     s_psi        :      0.90s CPU      0.49s WALL (   18052 calls)
     g_psi        :      0.62s CPU      0.33s WALL (   13663 calls)

     Called by h_psi:
     h_psi:calbec :      4.06s CPU      2.21s WALL (   18052 calls)
     vloc_psi     :     62.11s CPU     34.42s WALL (   18052 calls)
     add_vuspsi   :      1.53s CPU      0.84s WALL (   18052 calls)

     General routines
     calbec       :      4.70s CPU      2.55s WALL (   24569 calls)
     fft          :      0.43s CPU      0.74s WALL (     378 calls)
     ffts         :      0.01s CPU      0.01s WALL (      32 calls)
     fftw         :     62.95s CPU     34.98s WALL (  225688 calls)

     Parallel routines

     PWSCF        :   1m43.63s CPU     59.27s WALL


   This run was terminated on:   6: 4:22  22Apr2025            

=------------------------------------------------------------------------------=
   JOB DONE.
=------------------------------------------------------------------------------=
