
     Program PWSCF v.7.4.1 starts on 22Apr2025 at  6: 4:24 

     This program is part of the open-source Quantum ESPRESSO suite
     for quantum simulation of materials; please cite
         "P. Giannozzi et al., J. Phys.:Condens. Matter 21 395502 (2009);
         "P. Giannozzi et al., J. Phys.:Condens. Matter 29 465901 (2017);
         "P. Giannozzi et al., J. Chem. Phys. 152 154105 (2020);
          URL http://www.quantum-espresso.org", 
     in publications or presentations arising from this work. More details at
     http://www.quantum-espresso.org/quote

     Parallel version (MPI), running on     7 processors

     MPI processes distributed on     1 nodes
     12074 MiB available memory on the printing compute node when the environment starts

     Waiting for input...
     Reading input from standard input

     Current dimensions of program PWSCF are:
     Max number of different atomic species (ntypx) = 10
     Max number of k-points (npk) =  40000
     Max angular momentum in pseudopotentials (lmaxx) =  4

     R & G space division:  proc/nbgrp/npool/nimage =       7
     Subspace diagonalization in iterative solution of the eigenvalue problem:
     a serial algorithm will be used


     Parallelization info
     --------------------
     sticks:   dense  smooth     PW     G-vecs:    dense   smooth      PW
     Min          51      51     17                 4783     4783     933
     Max          52      52     18                 4800     4800     952
     Sum         361     361    121                33523    33523    6597

     Using Slab Decomposition



     bravais-lattice index     =            4
     lattice parameter (alat)  =       4.6561  a.u.
     unit-cell volume          =     532.1899 (a.u.)^3
     number of atoms/cell      =            2
     number of atomic types    =            1
     number of electrons       =         8.00
     number of Kohn-Sham states=            8
     kinetic-energy cutoff     =      60.0000  Ry
     charge density cutoff     =     240.0000  Ry
     scf convergence threshold =      1.0E-08
     mixing beta               =       0.7000
     number of iterations used =            8  plain     mixing
     Exchange-correlation= PBE
                           (   1   4   3   4   0   0   0)

     celldm(1)=   4.656107  celldm(2)=   0.000000  celldm(3)=   6.087896
     celldm(4)=   0.000000  celldm(5)=   0.000000  celldm(6)=   0.000000

     crystal axes: (cart. coord. in units of alat)
               a(1) = (   1.000000   0.000000   0.000000 )  
               a(2) = (  -0.500000   0.866025   0.000000 )  
               a(3) = (   0.000000   0.000000   6.087896 )  

     reciprocal axes: (cart. coord. in units 2 pi/alat)
               b(1) = (  1.000000  0.577350 -0.000000 )  
               b(2) = (  0.000000  1.154701  0.000000 )  
               b(3) = (  0.000000 -0.000000  0.164260 )  


     PseudoPot. # 1 for C  read from file:
     /home/rfa/Skripsi/DFT/dft-graphene/pseudo/C.pbe-n-rrkjus_psl.0.1.UPF
     MD5 check sum: 96a6a315177d77e6c95bf6fd3870f9e3
     Pseudo is Ultrasoft + core correction, Zval =  4.0
     Generated using &quot;atomic&quot; code by A. Dal Corso  v.6.3MaX
     Using radial grid of 1073 points,  4 beta functions with: 
                l(1) =   0
                l(2) =   0
                l(3) =   1
                l(4) =   1
     Q(r) pseudized with 0 coefficients 


     atomic species   valence    mass     pseudopotential
     C                 4.00    12.01070     C ( 1.00)

     24 Sym. Ops., with inversion, found



   Cartesian axes

     site n.     atom                  positions (alat units)
         1        C      tau(   1) = (   0.0000000   0.5773503   3.0439478  )
         2        C      tau(   2) = (   0.5000000   0.2886751   3.0439478  )

     number of k points=   252  Marzari-Vanderbilt smearing, width (Ry)=  0.0200

     Number of k-points >= 100: set verbosity='high' to print them.

     Dense  grid:    33523 G-vectors     FFT dimensions: (  24,  24, 144)

     Estimated max dynamical RAM per process >      25.38 MB

     Estimated total dynamical RAM >     177.63 MB

     Check: negative core charge=   -0.000003

     Initial potential from superposition of free atoms

     starting charge       7.9999, renormalised to       8.0000

     negative rho (up, down):  9.023E-05 0.000E+00
     Starting wfcs are    8 randomized atomic wfcs

     total cpu time spent up to now is        1.7 secs

     per-process dynamical memory:    30.7 Mb

     Self-consistent Calculation

     iteration #  1     ecut=    60.00 Ry     beta= 0.70
     Davidson diagonalization with overlap
     ethr =  1.00E-02,  avg # of iterations =  7.3

     Threshold (ethr) on eigenvalues was too large:
     Diagonalizing with lowered threshold

     Davidson diagonalization with overlap
     ethr =  8.29E-04,  avg # of iterations =  6.7

     negative rho (up, down):  1.439E-05 0.000E+00

     total cpu time spent up to now is       11.7 secs

     WARNING: integrated charge=     8.00008822, expected=     8.00000000

     total energy              =     -23.88169739 Ry
     estimated scf accuracy    <       0.19217289 Ry

     iteration #  2     ecut=    60.00 Ry     beta= 0.70
     Davidson diagonalization with overlap
     ethr =  2.40E-03,  avg # of iterations =  2.2

     negative rho (up, down):  3.953E-05 0.000E+00

     total cpu time spent up to now is       14.6 secs

     WARNING: integrated charge=     8.00008665, expected=     8.00000000

     total energy              =     -23.89220134 Ry
     estimated scf accuracy    <       0.00600431 Ry

     iteration #  3     ecut=    60.00 Ry     beta= 0.70
     Davidson diagonalization with overlap
     c_bands:  2 eigenvalues not converged
     c_bands:  1 eigenvalues not converged
     c_bands:  1 eigenvalues not converged
     c_bands:  1 eigenvalues not converged
     c_bands:  2 eigenvalues not converged
     c_bands:  5 eigenvalues not converged
     c_bands:  3 eigenvalues not converged
     c_bands:  2 eigenvalues not converged
     c_bands:  1 eigenvalues not converged
     c_bands:  1 eigenvalues not converged
     c_bands:  4 eigenvalues not converged
     c_bands:  1 eigenvalues not converged
     c_bands:  3 eigenvalues not converged
     c_bands:  2 eigenvalues not converged
     c_bands:  3 eigenvalues not converged
     c_bands:  2 eigenvalues not converged
     c_bands:  2 eigenvalues not converged
     c_bands:  1 eigenvalues not converged
     c_bands:  1 eigenvalues not converged
     c_bands:  1 eigenvalues not converged
     c_bands:  1 eigenvalues not converged
     c_bands:  1 eigenvalues not converged
     c_bands:  1 eigenvalues not converged
     c_bands:  1 eigenvalues not converged
     c_bands:  2 eigenvalues not converged
     c_bands:  2 eigenvalues not converged
     c_bands:  2 eigenvalues not converged
     c_bands:  1 eigenvalues not converged
     c_bands:  3 eigenvalues not converged
     c_bands:  1 eigenvalues not converged
     c_bands:  2 eigenvalues not converged
     c_bands:  3 eigenvalues not converged
     c_bands:  2 eigenvalues not converged
     c_bands:  1 eigenvalues not converged
     c_bands:  1 eigenvalues not converged
     c_bands:  3 eigenvalues not converged
     c_bands:  3 eigenvalues not converged
     c_bands:  2 eigenvalues not converged
     c_bands:  3 eigenvalues not converged
     c_bands:  1 eigenvalues not converged
     c_bands:  3 eigenvalues not converged
     c_bands:  2 eigenvalues not converged
     c_bands:  2 eigenvalues not converged
     c_bands:  2 eigenvalues not converged
     c_bands:  3 eigenvalues not converged
     c_bands:  3 eigenvalues not converged
     c_bands:  1 eigenvalues not converged
     c_bands:  2 eigenvalues not converged
     c_bands:  1 eigenvalues not converged
     c_bands:  1 eigenvalues not converged
     c_bands:  1 eigenvalues not converged
     c_bands:  3 eigenvalues not converged
     c_bands:  1 eigenvalues not converged
     c_bands:  1 eigenvalues not converged
     c_bands:  2 eigenvalues not converged
     c_bands:  1 eigenvalues not converged
     c_bands:  2 eigenvalues not converged
     c_bands:  2 eigenvalues not converged
     c_bands:  2 eigenvalues not converged
     c_bands:  1 eigenvalues not converged
     c_bands:  1 eigenvalues not converged
     c_bands:  2 eigenvalues not converged
     c_bands:  1 eigenvalues not converged
     c_bands:  1 eigenvalues not converged
     c_bands:  1 eigenvalues not converged
     c_bands:  1 eigenvalues not converged
     c_bands:  1 eigenvalues not converged
     c_bands:  1 eigenvalues not converged
     c_bands:  1 eigenvalues not converged
     c_bands:  1 eigenvalues not converged
     c_bands:  2 eigenvalues not converged
     c_bands:  2 eigenvalues not converged
     c_bands:  1 eigenvalues not converged
     c_bands:  3 eigenvalues not converged
     c_bands:  2 eigenvalues not converged
     c_bands:  1 eigenvalues not converged
     c_bands:  3 eigenvalues not converged
     c_bands:  2 eigenvalues not converged
     c_bands:  2 eigenvalues not converged
     c_bands:  2 eigenvalues not converged
     c_bands:  3 eigenvalues not converged
     c_bands:  2 eigenvalues not converged
     c_bands:  3 eigenvalues not converged
     c_bands:  3 eigenvalues not converged
     c_bands:  3 eigenvalues not converged
     c_bands:  3 eigenvalues not converged
     c_bands:  1 eigenvalues not converged
     c_bands:  1 eigenvalues not converged
     c_bands:  3 eigenvalues not converged
     c_bands:  2 eigenvalues not converged
     c_bands:  1 eigenvalues not converged
     c_bands:  1 eigenvalues not converged
     c_bands:  1 eigenvalues not converged
     c_bands:  1 eigenvalues not converged
     c_bands:  2 eigenvalues not converged
     c_bands:  2 eigenvalues not converged
     c_bands:  2 eigenvalues not converged
     c_bands:  1 eigenvalues not converged
     c_bands:  2 eigenvalues not converged
     c_bands:  2 eigenvalues not converged
     c_bands:  1 eigenvalues not converged
     c_bands:  1 eigenvalues not converged
     c_bands:  2 eigenvalues not converged
     c_bands:  2 eigenvalues not converged
     c_bands:  2 eigenvalues not converged
     c_bands:  2 eigenvalues not converged
     c_bands:  2 eigenvalues not converged
     c_bands:  3 eigenvalues not converged
     c_bands:  2 eigenvalues not converged
     c_bands:  1 eigenvalues not converged
     c_bands:  2 eigenvalues not converged
     c_bands:  2 eigenvalues not converged
     c_bands:  2 eigenvalues not converged
     c_bands:  1 eigenvalues not converged
     c_bands:  1 eigenvalues not converged
     c_bands:  1 eigenvalues not converged
     c_bands:  1 eigenvalues not converged
     c_bands:  2 eigenvalues not converged
     c_bands:  1 eigenvalues not converged
     c_bands:  1 eigenvalues not converged
     c_bands:  2 eigenvalues not converged
     c_bands:  1 eigenvalues not converged
     c_bands:  2 eigenvalues not converged
     c_bands:  3 eigenvalues not converged
     c_bands:  3 eigenvalues not converged
     c_bands:  1 eigenvalues not converged
     c_bands:  1 eigenvalues not converged
     c_bands:  2 eigenvalues not converged
     c_bands:  2 eigenvalues not converged
     c_bands:  3 eigenvalues not converged
     c_bands:  3 eigenvalues not converged
     c_bands:  2 eigenvalues not converged
     c_bands:  3 eigenvalues not converged
     c_bands:  1 eigenvalues not converged
     c_bands:  1 eigenvalues not converged
     c_bands:  1 eigenvalues not converged
     c_bands:  1 eigenvalues not converged
     c_bands:  3 eigenvalues not converged
     c_bands:  2 eigenvalues not converged
     c_bands:  2 eigenvalues not converged
     c_bands:  2 eigenvalues not converged
     c_bands:  2 eigenvalues not converged
     c_bands:  2 eigenvalues not converged
     c_bands:  2 eigenvalues not converged
     c_bands:  2 eigenvalues not converged
     c_bands:  2 eigenvalues not converged
     c_bands:  2 eigenvalues not converged
     c_bands:  1 eigenvalues not converged
     c_bands:  1 eigenvalues not converged
     c_bands:  2 eigenvalues not converged
     c_bands:  1 eigenvalues not converged
     c_bands:  1 eigenvalues not converged
     c_bands:  1 eigenvalues not converged
     c_bands:  2 eigenvalues not converged
     c_bands:  3 eigenvalues not converged
     c_bands:  1 eigenvalues not converged
     c_bands:  3 eigenvalues not converged
     c_bands:  1 eigenvalues not converged
     c_bands:  2 eigenvalues not converged
     c_bands:  1 eigenvalues not converged
     c_bands:  2 eigenvalues not converged
     c_bands:  1 eigenvalues not converged
     c_bands:  2 eigenvalues not converged
     c_bands:  1 eigenvalues not converged
     c_bands:  1 eigenvalues not converged
     c_bands:  1 eigenvalues not converged
     c_bands:  2 eigenvalues not converged
     c_bands:  1 eigenvalues not converged
     c_bands:  1 eigenvalues not converged
     c_bands:  1 eigenvalues not converged
     c_bands:  1 eigenvalues not converged
     c_bands:  1 eigenvalues not converged
     c_bands:  1 eigenvalues not converged
     c_bands:  1 eigenvalues not converged
     ethr =  7.51E-05,  avg # of iterations = 19.0

     negative rho (up, down):  3.696E-05 0.000E+00

     total cpu time spent up to now is       28.1 secs

     WARNING: integrated charge=     8.00008654, expected=     8.00000000

     total energy              =     -23.91471471 Ry
     estimated scf accuracy    <       0.00780455 Ry

     iteration #  4     ecut=    60.00 Ry     beta= 0.70
     Davidson diagonalization with overlap
     c_bands:  1 eigenvalues not converged
     ethr =  7.51E-05,  avg # of iterations =  4.9

     negative rho (up, down):  4.682E-05 0.000E+00

     total cpu time spent up to now is       31.8 secs

     WARNING: integrated charge=     8.00006733, expected=     8.00000000

     total energy              =     -23.91777709 Ry
     estimated scf accuracy    <       0.01081359 Ry

     iteration #  5     ecut=    60.00 Ry     beta= 0.70
     Davidson diagonalization with overlap
     ethr =  7.51E-05,  avg # of iterations =  1.3

     negative rho (up, down):  8.422E-05 0.000E+00

     total cpu time spent up to now is       34.4 secs

     WARNING: integrated charge=     8.00005228, expected=     8.00000000

     total energy              =     -23.91025536 Ry
     estimated scf accuracy    <       0.01516673 Ry

     iteration #  6     ecut=    60.00 Ry     beta= 0.70
     Davidson diagonalization with overlap
     ethr =  7.51E-05,  avg # of iterations =  2.1

     negative rho (up, down):  8.637E-05 0.000E+00

     total cpu time spent up to now is       37.2 secs

     WARNING: integrated charge=     8.00005586, expected=     8.00000000

     total energy              =     -23.91065299 Ry
     estimated scf accuracy    <       0.00347214 Ry

     iteration #  7     ecut=    60.00 Ry     beta= 0.70
     Davidson diagonalization with overlap
     ethr =  4.34E-05,  avg # of iterations =  1.8

     negative rho (up, down):  8.419E-05 0.000E+00

     total cpu time spent up to now is       40.0 secs

     WARNING: integrated charge=     8.00005501, expected=     8.00000000

     total energy              =     -23.91094886 Ry
     estimated scf accuracy    <       0.00275632 Ry

     iteration #  8     ecut=    60.00 Ry     beta= 0.70
     Davidson diagonalization with overlap
     ethr =  3.45E-05,  avg # of iterations =  1.5

     negative rho (up, down):  8.427E-05 0.000E+00

     total cpu time spent up to now is       42.6 secs

     WARNING: integrated charge=     8.00005486, expected=     8.00000000

     total energy              =     -23.91100359 Ry
     estimated scf accuracy    <       0.00273233 Ry

     iteration #  9     ecut=    60.00 Ry     beta= 0.70
     Davidson diagonalization with overlap
     ethr =  3.42E-05,  avg # of iterations =  1.1

     negative rho (up, down):  8.190E-05 0.000E+00

     total cpu time spent up to now is       45.2 secs

     WARNING: integrated charge=     8.00005361, expected=     8.00000000

     total energy              =     -23.91123335 Ry
     estimated scf accuracy    <       0.00255486 Ry

     iteration # 10     ecut=    60.00 Ry     beta= 0.70
     Davidson diagonalization with overlap
     ethr =  3.19E-05,  avg # of iterations =  1.2

     negative rho (up, down):  7.691E-05 0.000E+00

     total cpu time spent up to now is       47.7 secs

     WARNING: integrated charge=     8.00005225, expected=     8.00000000

     total energy              =     -23.91171892 Ry
     estimated scf accuracy    <       0.00276831 Ry

     iteration # 11     ecut=    60.00 Ry     beta= 0.70
     Davidson diagonalization with overlap
     ethr =  3.19E-05,  avg # of iterations =  1.3

     negative rho (up, down):  1.531E-04 0.000E+00

     total cpu time spent up to now is       50.3 secs

     WARNING: integrated charge=     8.00010254, expected=     8.00000000

     total energy              =     -23.90961145 Ry
     estimated scf accuracy    <       0.00349826 Ry

     iteration # 12     ecut=    60.00 Ry     beta= 0.70
     Davidson diagonalization with overlap
     c_bands:  1 eigenvalues not converged
     c_bands:  1 eigenvalues not converged
     ethr =  3.19E-05,  avg # of iterations =  4.5

     negative rho (up, down):  1.445E-04 0.000E+00

     total cpu time spent up to now is       53.9 secs

     WARNING: integrated charge=     8.00009980, expected=     8.00000000

     total energy              =     -23.91049443 Ry
     estimated scf accuracy    <       0.00091922 Ry

     iteration # 13     ecut=    60.00 Ry     beta= 0.70
     Davidson diagonalization with overlap
     c_bands:  1 eigenvalues not converged
     c_bands:  1 eigenvalues not converged
     c_bands:  1 eigenvalues not converged
     c_bands:  2 eigenvalues not converged
     c_bands:  1 eigenvalues not converged
     ethr =  1.15E-05,  avg # of iterations =  5.1

     negative rho (up, down):  1.448E-04 0.000E+00

     total cpu time spent up to now is       57.9 secs

     WARNING: integrated charge=     8.00009980, expected=     8.00000000

     total energy              =     -23.91076867 Ry
     estimated scf accuracy    <       0.00087661 Ry

     iteration # 14     ecut=    60.00 Ry     beta= 0.70
     Davidson diagonalization with overlap
     c_bands:  1 eigenvalues not converged
     c_bands:  2 eigenvalues not converged
     ethr =  1.10E-05,  avg # of iterations =  1.8

     negative rho (up, down):  1.484E-04 0.000E+00

     total cpu time spent up to now is       60.6 secs

     WARNING: integrated charge=     8.00010047, expected=     8.00000000

     total energy              =     -23.91085511 Ry
     estimated scf accuracy    <       0.00092300 Ry

     iteration # 15     ecut=    60.00 Ry     beta= 0.70
     Davidson diagonalization with overlap
     c_bands:  1 eigenvalues not converged
     ethr =  1.10E-05,  avg # of iterations =  1.2

     negative rho (up, down):  1.376E-04 0.000E+00

     total cpu time spent up to now is       63.2 secs

     WARNING: integrated charge=     8.00009778, expected=     8.00000000

     total energy              =     -23.91078368 Ry
     estimated scf accuracy    <       0.00103910 Ry

     iteration # 16     ecut=    60.00 Ry     beta= 0.70
     Davidson diagonalization with overlap
     ethr =  1.10E-05,  avg # of iterations =  1.2

     negative rho (up, down):  1.267E-04 0.000E+00

     total cpu time spent up to now is       65.7 secs

     WARNING: integrated charge=     8.00009521, expected=     8.00000000

     total energy              =     -23.91096592 Ry
     estimated scf accuracy    <       0.00102606 Ry

     iteration # 17     ecut=    60.00 Ry     beta= 0.70
     Davidson diagonalization with overlap
     ethr =  1.10E-05,  avg # of iterations =  1.0

     negative rho (up, down):  1.093E-04 0.000E+00

     total cpu time spent up to now is       68.2 secs

     WARNING: integrated charge=     8.00009185, expected=     8.00000000

     total energy              =     -23.91012906 Ry
     estimated scf accuracy    <       0.00154734 Ry

     iteration # 18     ecut=    60.00 Ry     beta= 0.70
     Davidson diagonalization with overlap
     c_bands:  2 eigenvalues not converged
     ethr =  1.10E-05,  avg # of iterations =  2.4

     negative rho (up, down):  1.243E-04 0.000E+00

     total cpu time spent up to now is       71.3 secs

     WARNING: integrated charge=     8.00009556, expected=     8.00000000

     total energy              =     -23.91057654 Ry
     estimated scf accuracy    <       0.00012178 Ry

     iteration # 19     ecut=    60.00 Ry     beta= 0.70
     Davidson diagonalization with overlap
     c_bands:  1 eigenvalues not converged
     c_bands:  1 eigenvalues not converged
     c_bands:  2 eigenvalues not converged
     c_bands:  1 eigenvalues not converged
     c_bands:  1 eigenvalues not converged
     c_bands:  1 eigenvalues not converged
     c_bands:  1 eigenvalues not converged
     c_bands:  1 eigenvalues not converged
     c_bands:  1 eigenvalues not converged
     ethr =  1.52E-06,  avg # of iterations =  6.1

     negative rho (up, down):  1.235E-04 0.000E+00

     total cpu time spent up to now is       75.9 secs

     WARNING: integrated charge=     8.00009423, expected=     8.00000000

     total energy              =     -23.91067786 Ry
     estimated scf accuracy    <       0.00062635 Ry

     iteration # 20     ecut=    60.00 Ry     beta= 0.70
     Davidson diagonalization with overlap
     c_bands:  1 eigenvalues not converged
     c_bands:  1 eigenvalues not converged
     c_bands:  1 eigenvalues not converged
     c_bands:  1 eigenvalues not converged
     ethr =  1.52E-06,  avg # of iterations =  1.8

     negative rho (up, down):  1.212E-04 0.000E+00

     total cpu time spent up to now is       78.6 secs

     WARNING: integrated charge=     8.00009471, expected=     8.00000000

     total energy              =     -23.91066110 Ry
     estimated scf accuracy    <       0.00063908 Ry

     iteration # 21     ecut=    60.00 Ry     beta= 0.70
     Davidson diagonalization with overlap
     ethr =  1.52E-06,  avg # of iterations =  1.3

     negative rho (up, down):  1.129E-04 0.000E+00

     total cpu time spent up to now is       81.2 secs

     WARNING: integrated charge=     8.00010070, expected=     8.00000000

     total energy              =     -23.91025562 Ry
     estimated scf accuracy    <       0.00060352 Ry

     iteration # 22     ecut=    60.00 Ry     beta= 0.70
     Davidson diagonalization with overlap
     c_bands:  1 eigenvalues not converged
     c_bands:  1 eigenvalues not converged
     c_bands:  1 eigenvalues not converged
     c_bands:  1 eigenvalues not converged
     ethr =  1.52E-06,  avg # of iterations =  5.8

     negative rho (up, down):  1.187E-04 0.000E+00

     total cpu time spent up to now is       86.0 secs

     WARNING: integrated charge=     8.00010058, expected=     8.00000000

     total energy              =     -23.91037310 Ry
     estimated scf accuracy    <       0.00002386 Ry

     iteration # 23     ecut=    60.00 Ry     beta= 0.70
     Davidson diagonalization with overlap
     ethr =  2.98E-07,  avg # of iterations =  4.0

     negative rho (up, down):  1.307E-04 0.000E+00

     total cpu time spent up to now is       90.1 secs

     WARNING: integrated charge=     8.00010076, expected=     8.00000000

     total energy              =     -23.91038357 Ry
     estimated scf accuracy    <       0.00001149 Ry

     iteration # 24     ecut=    60.00 Ry     beta= 0.70
     Davidson diagonalization with overlap
     ethr =  1.44E-07,  avg # of iterations =  4.3

     negative rho (up, down):  1.295E-04 0.000E+00

     total cpu time spent up to now is       94.4 secs

     WARNING: integrated charge=     8.00010063, expected=     8.00000000

     total energy              =     -23.91038444 Ry
     estimated scf accuracy    <       0.00001071 Ry

     iteration # 25     ecut=    60.00 Ry     beta= 0.70
     Davidson diagonalization with overlap
     ethr =  1.34E-07,  avg # of iterations =  1.3

     negative rho (up, down):  1.264E-04 0.000E+00

     total cpu time spent up to now is       97.5 secs

     WARNING: integrated charge=     8.00010056, expected=     8.00000000

     total energy              =     -23.91038570 Ry
     estimated scf accuracy    <       0.00000015 Ry

     iteration # 26     ecut=    60.00 Ry     beta= 0.70
     Davidson diagonalization with overlap
     ethr =  1.89E-09,  avg # of iterations =  5.6

     negative rho (up, down):  1.270E-04 0.000E+00

     total cpu time spent up to now is      102.5 secs

     WARNING: integrated charge=     8.00010059, expected=     8.00000000

     total energy              =     -23.91038683 Ry
     estimated scf accuracy    <       0.00000087 Ry

     iteration # 27     ecut=    60.00 Ry     beta= 0.70
     Davidson diagonalization with overlap
     ethr =  1.89E-09,  avg # of iterations =  1.9

     negative rho (up, down):  1.276E-04 0.000E+00

     total cpu time spent up to now is      105.3 secs

     WARNING: integrated charge=     8.00010066, expected=     8.00000000

     total energy              =     -23.91038673 Ry
     estimated scf accuracy    <       0.00000019 Ry

     iteration # 28     ecut=    60.00 Ry     beta= 0.70
     Davidson diagonalization with overlap
     c_bands:  1 eigenvalues not converged
     ethr =  1.89E-09,  avg # of iterations =  4.1

     negative rho (up, down):  1.272E-04 0.000E+00

     total cpu time spent up to now is      109.5 secs

     WARNING: integrated charge=     8.00010063, expected=     8.00000000

     total energy              =     -23.91038684 Ry
     estimated scf accuracy    <       0.00000011 Ry

     iteration # 29     ecut=    60.00 Ry     beta= 0.70
     Davidson diagonalization with overlap
     ethr =  1.42E-09,  avg # of iterations =  1.1

     negative rho (up, down):  1.272E-04 0.000E+00

     total cpu time spent up to now is      112.1 secs

     End of self-consistent calculation

     Number of k-points >= 100: set verbosity='high' to print the bands.

     the Fermi energy is    -1.5466 ev

     WARNING: integrated charge=     8.00010062, expected=     8.00000000

!    total energy              =     -23.91038684 Ry
     estimated scf accuracy    <          5.4E-09 Ry
     smearing contrib. (-TS)   =       0.00000157 Ry
     internal energy E=F+TS    =     -23.91038841 Ry

     The total energy is F=E-TS. E is the sum of the following terms:
     one-electron contribution =    -157.39958554 Ry
     hartree contribution      =      80.16308385 Ry
     xc contribution           =      -8.30353383 Ry
     ewald contribution        =      61.62964711 Ry

     convergence has been achieved in  29 iterations

     negative rho (up, down):  1.272E-04 0.000E+00

     Forces acting on atoms (cartesian axes, Ry/au):

     atom    1 type  1   force =     0.00000000    0.00000000    0.00000000
     atom    2 type  1   force =     0.00000000    0.00000000    0.00000000

     Total force =     0.000000     Total SCF correction =     0.000000


     Computing stress (Cartesian axis) and pressure


     negative rho (up, down):  1.272E-04 0.000E+00
          total   stress  (Ry/bohr**3)                   (kbar)     P=       -0.23
  -0.00000170  -0.00000000   0.00000000           -0.25       -0.00        0.00
  -0.00000000  -0.00000170   0.00000000           -0.00       -0.25        0.00
   0.00000000   0.00000000  -0.00000127            0.00        0.00       -0.19


     Writing all to output data dir /home/rfa/Skripsi/DFT/dft-graphene/tmp/gr-1L.save/ :
     XML data file, charge density, pseudopotentials, collected wavefunctions

     init_run     :      2.17s CPU      1.68s WALL (       1 calls)
     electrons    :    197.14s CPU    110.34s WALL (       1 calls)
     forces       :      0.26s CPU      0.14s WALL (       1 calls)
     stress       :      1.24s CPU      0.66s WALL (       1 calls)

     Called by init_run:
     wfcinit      :      1.78s CPU      0.98s WALL (       1 calls)
     potinit      :      0.01s CPU      0.01s WALL (       1 calls)
     hinit0       :      0.34s CPU      0.64s WALL (       1 calls)

     Called by electrons:
     c_bands      :    172.27s CPU     96.25s WALL (      30 calls)
     sum_band     :     24.19s CPU     13.52s WALL (      30 calls)
     v_of_rho     :      0.22s CPU      0.22s WALL (      30 calls)
     newd         :      0.22s CPU      0.20s WALL (      30 calls)
     mix_rho      :      0.21s CPU      0.12s WALL (      30 calls)

     Called by c_bands:
     init_us_2    :      4.48s CPU      2.41s WALL (   15876 calls)
     cegterg      :    163.99s CPU     91.16s WALL (    7560 calls)

     Called by *egterg:
     cdiaghg      :      8.30s CPU      4.60s WALL (   33821 calls)
     h_psi        :    135.77s CPU     75.75s WALL (   34325 calls)
     s_psi        :      1.91s CPU      1.01s WALL (   34325 calls)
     g_psi        :      1.19s CPU      0.65s WALL (   26513 calls)

     Called by h_psi:
     h_psi:calbec :      8.12s CPU      4.56s WALL (   34325 calls)
     vloc_psi     :    122.50s CPU     68.20s WALL (   34325 calls)
     add_vuspsi   :      3.25s CPU      1.79s WALL (   34325 calls)

     General routines
     calbec       :      9.51s CPU      5.27s WALL (   46169 calls)
     fft          :      0.43s CPU      0.73s WALL (     356 calls)
     ffts         :      0.02s CPU      0.01s WALL (      30 calls)
     fftw         :    123.87s CPU     69.17s WALL (  414404 calls)

     Parallel routines

     PWSCF        :   3m21.15s CPU   1m54.97s WALL


   This run was terminated on:   6: 6:19  22Apr2025            

=------------------------------------------------------------------------------=
   JOB DONE.
=------------------------------------------------------------------------------=
