
     Program PWSCF v.7.4.1 starts on 22Apr2025 at  6: 1:51 

     This program is part of the open-source Quantum ESPRESSO suite
     for quantum simulation of materials; please cite
         "P. Giannozzi et al., J. Phys.:Condens. Matter 21 395502 (2009);
         "P. Giannozzi et al., J. Phys.:Condens. Matter 29 465901 (2017);
         "P. Giannozzi et al., J. Chem. Phys. 152 154105 (2020);
          URL http://www.quantum-espresso.org", 
     in publications or presentations arising from this work. More details at
     http://www.quantum-espresso.org/quote

     Parallel version (MPI), running on     7 processors

     MPI processes distributed on     1 nodes
     12187 MiB available memory on the printing compute node when the environment starts

     Waiting for input...
     Reading input from standard input

     Current dimensions of program PWSCF are:
     Max number of different atomic species (ntypx) = 10
     Max number of k-points (npk) =  40000
     Max angular momentum in pseudopotentials (lmaxx) =  4

     R & G space division:  proc/nbgrp/npool/nimage =       7
     Subspace diagonalization in iterative solution of the eigenvalue problem:
     a serial algorithm will be used


     Parallelization info
     --------------------
     sticks:   dense  smooth     PW     G-vecs:    dense   smooth      PW
     Min          51      51     15                 4783     4783     817
     Max          52      52     16                 4800     4800     840
     Sum         361     361    109                33523    33523    5815

     Using Slab Decomposition



     bravais-lattice index     =            4
     lattice parameter (alat)  =       4.6561  a.u.
     unit-cell volume          =     532.1899 (a.u.)^3
     number of atoms/cell      =            2
     number of atomic types    =            1
     number of electrons       =         8.00
     number of Kohn-Sham states=            8
     kinetic-energy cutoff     =      60.0000  Ry
     charge density cutoff     =     240.0000  Ry
     scf convergence threshold =      1.0E-08
     mixing beta               =       0.7000
     number of iterations used =            8  plain     mixing
     Exchange-correlation= PBE
                           (   1   4   3   4   0   0   0)

     celldm(1)=   4.656107  celldm(2)=   0.000000  celldm(3)=   6.087896
     celldm(4)=   0.000000  celldm(5)=   0.000000  celldm(6)=   0.000000

     crystal axes: (cart. coord. in units of alat)
               a(1) = (   1.000000   0.000000   0.000000 )  
               a(2) = (  -0.500000   0.866025   0.000000 )  
               a(3) = (   0.000000   0.000000   6.087896 )  

     reciprocal axes: (cart. coord. in units 2 pi/alat)
               b(1) = (  1.000000  0.577350 -0.000000 )  
               b(2) = (  0.000000  1.154701  0.000000 )  
               b(3) = (  0.000000 -0.000000  0.164260 )  


     PseudoPot. # 1 for C  read from file:
     /home/rfa/Skripsi/DFT/dft-graphene/pseudo/C.pbe-n-rrkjus_psl.0.1.UPF
     MD5 check sum: 96a6a315177d77e6c95bf6fd3870f9e3
     Pseudo is Ultrasoft + core correction, Zval =  4.0
     Generated using &quot;atomic&quot; code by A. Dal Corso  v.6.3MaX
     Using radial grid of 1073 points,  4 beta functions with: 
                l(1) =   0
                l(2) =   0
                l(3) =   1
                l(4) =   1
     Q(r) pseudized with 0 coefficients 


     atomic species   valence    mass     pseudopotential
     C                 4.00    12.01070     C ( 1.00)

     24 Sym. Ops., with inversion, found



   Cartesian axes

     site n.     atom                  positions (alat units)
         1        C      tau(   1) = (   0.0000000   0.5773503   3.0439478  )
         2        C      tau(   2) = (   0.5000000   0.2886751   3.0439478  )

     number of k points=    28  Marzari-Vanderbilt smearing, width (Ry)=  0.0200
                       cart. coord. in units 2pi/alat
        k(    1) = (   0.0000000   0.0000000   0.0000000), wk =   0.0092593
        k(    2) = (   0.0000000   0.0000000   0.0273767), wk =   0.0185185
        k(    3) = (   0.0000000   0.0000000   0.0547535), wk =   0.0185185
        k(    4) = (   0.0000000   0.0000000  -0.0821302), wk =   0.0092593
        k(    5) = (   0.0000000   0.1924501   0.0000000), wk =   0.0555556
        k(    6) = (   0.0000000   0.1924501   0.0273767), wk =   0.1111111
        k(    7) = (   0.0000000   0.1924501   0.0547535), wk =   0.1111111
        k(    8) = (   0.0000000   0.1924501  -0.0821302), wk =   0.0555556
        k(    9) = (   0.0000000   0.3849002   0.0000000), wk =   0.0555556
        k(   10) = (   0.0000000   0.3849002   0.0273767), wk =   0.1111111
        k(   11) = (   0.0000000   0.3849002   0.0547535), wk =   0.1111111
        k(   12) = (   0.0000000   0.3849002  -0.0821302), wk =   0.0555556
        k(   13) = (   0.0000000  -0.5773503   0.0000000), wk =   0.0277778
        k(   14) = (   0.0000000  -0.5773503   0.0273767), wk =   0.0555556
        k(   15) = (   0.0000000  -0.5773503   0.0547535), wk =   0.0555556
        k(   16) = (   0.0000000  -0.5773503  -0.0821302), wk =   0.0277778
        k(   17) = (   0.1666667   0.2886751   0.0000000), wk =   0.0555556
        k(   18) = (   0.1666667   0.2886751   0.0273767), wk =   0.1111111
        k(   19) = (   0.1666667   0.2886751   0.0547535), wk =   0.1111111
        k(   20) = (   0.1666667   0.2886751  -0.0821302), wk =   0.0555556
        k(   21) = (   0.1666667   0.4811252   0.0000000), wk =   0.1111111
        k(   22) = (   0.1666667   0.4811252   0.0273767), wk =   0.2222222
        k(   23) = (   0.1666667   0.4811252   0.0547535), wk =   0.2222222
        k(   24) = (   0.1666667   0.4811252  -0.0821302), wk =   0.1111111
        k(   25) = (   0.3333333   0.5773503   0.0000000), wk =   0.0185185
        k(   26) = (   0.3333333   0.5773503   0.0273767), wk =   0.0370370
        k(   27) = (   0.3333333   0.5773503   0.0547535), wk =   0.0370370
        k(   28) = (   0.3333333   0.5773503  -0.0821302), wk =   0.0185185

     Dense  grid:    33523 G-vectors     FFT dimensions: (  24,  24, 144)

     Estimated max dynamical RAM per process >       9.08 MB

     Estimated total dynamical RAM >      63.56 MB

     Check: negative core charge=   -0.000003

     Initial potential from superposition of free atoms

     starting charge       7.9999, renormalised to       8.0000

     negative rho (up, down):  9.023E-05 0.000E+00
     Starting wfcs are    8 randomized atomic wfcs

     total cpu time spent up to now is        0.8 secs

     per-process dynamical memory:    11.7 Mb

     Self-consistent Calculation

     iteration #  1     ecut=    60.00 Ry     beta= 0.70
     Davidson diagonalization with overlap
     ethr =  1.00E-02,  avg # of iterations =  7.6

     Threshold (ethr) on eigenvalues was too large:
     Diagonalizing with lowered threshold

     Davidson diagonalization with overlap
     ethr =  9.63E-04,  avg # of iterations =  4.3

     negative rho (up, down):  5.781E-06 0.000E+00

     total cpu time spent up to now is        1.8 secs

     total energy              =     -23.87792110 Ry
     estimated scf accuracy    <       0.18882721 Ry

     iteration #  2     ecut=    60.00 Ry     beta= 0.70
     Davidson diagonalization with overlap
     ethr =  2.36E-03,  avg # of iterations =  2.2

     negative rho (up, down):  3.154E-05 0.000E+00

     total cpu time spent up to now is        2.1 secs

     total energy              =     -23.88906352 Ry
     estimated scf accuracy    <       0.00595974 Ry

     iteration #  3     ecut=    60.00 Ry     beta= 0.70
     Davidson diagonalization with overlap
     c_bands:  1 eigenvalues not converged
     c_bands:  1 eigenvalues not converged
     c_bands:  3 eigenvalues not converged
     c_bands:  3 eigenvalues not converged
     c_bands:  3 eigenvalues not converged
     c_bands:  1 eigenvalues not converged
     c_bands:  2 eigenvalues not converged
     c_bands:  2 eigenvalues not converged
     c_bands:  1 eigenvalues not converged
     c_bands:  2 eigenvalues not converged
     c_bands:  2 eigenvalues not converged
     c_bands:  1 eigenvalues not converged
     c_bands:  1 eigenvalues not converged
     c_bands:  3 eigenvalues not converged
     c_bands:  2 eigenvalues not converged
     c_bands:  2 eigenvalues not converged
     c_bands:  2 eigenvalues not converged
     ethr =  7.45E-05,  avg # of iterations = 19.4

     negative rho (up, down):  2.823E-05 0.000E+00

     total cpu time spent up to now is        3.4 secs

     total energy              =     -23.91083831 Ry
     estimated scf accuracy    <       0.00680982 Ry

     iteration #  4     ecut=    60.00 Ry     beta= 0.70
     Davidson diagonalization with overlap
     ethr =  7.45E-05,  avg # of iterations =  3.8

     negative rho (up, down):  5.081E-05 0.000E+00

     total cpu time spent up to now is        3.8 secs

     total energy              =     -23.91195126 Ry
     estimated scf accuracy    <       0.01038757 Ry

     iteration #  5     ecut=    60.00 Ry     beta= 0.70
     Davidson diagonalization with overlap
     ethr =  7.45E-05,  avg # of iterations =  1.1

     negative rho (up, down):  9.531E-05 0.000E+00

     total cpu time spent up to now is        4.1 secs

     total energy              =     -23.90613367 Ry
     estimated scf accuracy    <       0.01094611 Ry

     iteration #  6     ecut=    60.00 Ry     beta= 0.70
     Davidson diagonalization with overlap
     ethr =  7.45E-05,  avg # of iterations =  1.9

     negative rho (up, down):  9.521E-05 0.000E+00

     total cpu time spent up to now is        4.4 secs

     total energy              =     -23.90667955 Ry
     estimated scf accuracy    <       0.00178322 Ry

     iteration #  7     ecut=    60.00 Ry     beta= 0.70
     Davidson diagonalization with overlap
     ethr =  2.23E-05,  avg # of iterations =  4.0

     negative rho (up, down):  8.829E-05 0.000E+00

     total cpu time spent up to now is        4.8 secs

     total energy              =     -23.90712116 Ry
     estimated scf accuracy    <       0.00153904 Ry

     iteration #  8     ecut=    60.00 Ry     beta= 0.70
     Davidson diagonalization with overlap
     ethr =  1.92E-05,  avg # of iterations =  2.0

     negative rho (up, down):  8.580E-05 0.000E+00

     total cpu time spent up to now is        5.1 secs

     total energy              =     -23.90736008 Ry
     estimated scf accuracy    <       0.00181300 Ry

     iteration #  9     ecut=    60.00 Ry     beta= 0.70
     Davidson diagonalization with overlap
     ethr =  1.92E-05,  avg # of iterations =  1.2

     negative rho (up, down):  8.786E-05 0.000E+00

     total cpu time spent up to now is        5.4 secs

     total energy              =     -23.90727868 Ry
     estimated scf accuracy    <       0.00202028 Ry

     iteration # 10     ecut=    60.00 Ry     beta= 0.70
     Davidson diagonalization with overlap
     ethr =  1.92E-05,  avg # of iterations =  1.3

     negative rho (up, down):  9.245E-05 0.000E+00

     total cpu time spent up to now is        5.6 secs

     total energy              =     -23.90720623 Ry
     estimated scf accuracy    <       0.00176005 Ry

     iteration # 11     ecut=    60.00 Ry     beta= 0.70
     Davidson diagonalization with overlap
     ethr =  1.92E-05,  avg # of iterations =  1.1

     negative rho (up, down):  1.371E-04 0.000E+00

     total cpu time spent up to now is        5.9 secs

     total energy              =     -23.90635897 Ry
     estimated scf accuracy    <       0.00144857 Ry

     iteration # 12     ecut=    60.00 Ry     beta= 0.70
     Davidson diagonalization with overlap
     c_bands:  1 eigenvalues not converged
     ethr =  1.81E-05,  avg # of iterations =  2.9

     negative rho (up, down):  1.312E-04 0.000E+00

     total cpu time spent up to now is        6.3 secs

     total energy              =     -23.90658987 Ry
     estimated scf accuracy    <       0.00002936 Ry

     iteration # 13     ecut=    60.00 Ry     beta= 0.70
     Davidson diagonalization with overlap
     c_bands:  2 eigenvalues not converged
     c_bands:  1 eigenvalues not converged
     ethr =  3.67E-07,  avg # of iterations = 12.2

     negative rho (up, down):  1.317E-04 0.000E+00

     total cpu time spent up to now is        7.1 secs

     total energy              =     -23.90680275 Ry
     estimated scf accuracy    <       0.00005735 Ry

     iteration # 14     ecut=    60.00 Ry     beta= 0.70
     Davidson diagonalization with overlap
     c_bands:  1 eigenvalues not converged
     ethr =  3.67E-07,  avg # of iterations =  3.2

     negative rho (up, down):  1.327E-04 0.000E+00

     total cpu time spent up to now is        7.5 secs

     total energy              =     -23.90679147 Ry
     estimated scf accuracy    <       0.00003620 Ry

     iteration # 15     ecut=    60.00 Ry     beta= 0.70
     Davidson diagonalization with overlap
     ethr =  3.67E-07,  avg # of iterations =  2.6

     negative rho (up, down):  1.340E-04 0.000E+00

     total cpu time spent up to now is        7.8 secs

     total energy              =     -23.90723933 Ry
     estimated scf accuracy    <       0.00002283 Ry

     iteration # 16     ecut=    60.00 Ry     beta= 0.70
     Davidson diagonalization with overlap
     ethr =  2.85E-07,  avg # of iterations = 10.1

     negative rho (up, down):  1.241E-04 0.000E+00

     total cpu time spent up to now is        8.7 secs

     total energy              =     -23.90688832 Ry
     estimated scf accuracy    <       0.00140575 Ry

     iteration # 17     ecut=    60.00 Ry     beta= 0.70
     Davidson diagonalization with overlap
     ethr =  2.85E-07,  avg # of iterations =  4.5

     negative rho (up, down):  1.245E-04 0.000E+00

     total cpu time spent up to now is        9.1 secs

     total energy              =     -23.90695775 Ry
     estimated scf accuracy    <       0.00034459 Ry

     iteration # 18     ecut=    60.00 Ry     beta= 0.70
     Davidson diagonalization with overlap
     ethr =  2.85E-07,  avg # of iterations =  1.7

     negative rho (up, down):  1.174E-04 0.000E+00

     total cpu time spent up to now is        9.4 secs

     total energy              =     -23.90674531 Ry
     estimated scf accuracy    <       0.00035826 Ry

     iteration # 19     ecut=    60.00 Ry     beta= 0.70
     Davidson diagonalization with overlap
     ethr =  2.85E-07,  avg # of iterations =  5.7

     negative rho (up, down):  1.257E-04 0.000E+00

     total cpu time spent up to now is       10.0 secs

     total energy              =     -23.90680728 Ry
     estimated scf accuracy    <       0.00001091 Ry

     iteration # 20     ecut=    60.00 Ry     beta= 0.70
     Davidson diagonalization with overlap
     c_bands:  1 eigenvalues not converged
     ethr =  1.36E-07,  avg # of iterations =  5.5

     negative rho (up, down):  1.257E-04 0.000E+00

     total cpu time spent up to now is       10.5 secs

     total energy              =     -23.90681215 Ry
     estimated scf accuracy    <       0.00010377 Ry

     iteration # 21     ecut=    60.00 Ry     beta= 0.70
     Davidson diagonalization with overlap
     ethr =  1.36E-07,  avg # of iterations =  1.4

     negative rho (up, down):  1.274E-04 0.000E+00

     total cpu time spent up to now is       10.8 secs

     total energy              =     -23.90679053 Ry
     estimated scf accuracy    <       0.00006121 Ry

     iteration # 22     ecut=    60.00 Ry     beta= 0.70
     Davidson diagonalization with overlap
     ethr =  1.36E-07,  avg # of iterations =  3.1

     negative rho (up, down):  1.279E-04 0.000E+00

     total cpu time spent up to now is       11.1 secs

     total energy              =     -23.90678656 Ry
     estimated scf accuracy    <       0.00001632 Ry

     iteration # 23     ecut=    60.00 Ry     beta= 0.70
     Davidson diagonalization with overlap
     ethr =  1.36E-07,  avg # of iterations =  2.1

     negative rho (up, down):  1.278E-04 0.000E+00

     total cpu time spent up to now is       11.4 secs

     total energy              =     -23.90678631 Ry
     estimated scf accuracy    <       0.00000288 Ry

     iteration # 24     ecut=    60.00 Ry     beta= 0.70
     Davidson diagonalization with overlap
     ethr =  3.60E-08,  avg # of iterations =  4.2

     negative rho (up, down):  1.275E-04 0.000E+00

     total cpu time spent up to now is       11.9 secs

     total energy              =     -23.90679003 Ry
     estimated scf accuracy    <       0.00000166 Ry

     iteration # 25     ecut=    60.00 Ry     beta= 0.70
     Davidson diagonalization with overlap
     ethr =  2.07E-08,  avg # of iterations =  1.1

     negative rho (up, down):  1.273E-04 0.000E+00

     total cpu time spent up to now is       12.2 secs

     total energy              =     -23.90678998 Ry
     estimated scf accuracy    <       0.00000024 Ry

     iteration # 26     ecut=    60.00 Ry     beta= 0.70
     Davidson diagonalization with overlap
     ethr =  3.05E-09,  avg # of iterations =  4.0

     negative rho (up, down):  1.274E-04 0.000E+00

     total cpu time spent up to now is       12.6 secs

     End of self-consistent calculation

          k = 0.0000 0.0000 0.0000 (  4149 PWs)   bands (ev):

   -21.2448  -9.3479  -4.7853  -4.7853   1.4134   2.2344   2.4904   4.4652

          k = 0.0000 0.0000 0.0274 (  4144 PWs)   bands (ev):

   -21.2448  -9.3479  -4.7853  -4.7853   1.4275   2.1053   2.6626   4.2484

          k = 0.0000 0.0000 0.0548 (  4162 PWs)   bands (ev):

   -21.2448  -9.3479  -4.7853  -4.7853   1.4611   1.9555   2.9349   3.8950

          k = 0.0000 0.0000-0.0821 (  4186 PWs)   bands (ev):

   -21.2448  -9.3479  -4.7853  -4.7853   1.4822   1.8936   3.1069   3.6907

          k = 0.0000 0.1925 0.0000 (  4194 PWs)   bands (ev):

   -20.5909  -8.5682  -7.0687  -5.9164   2.3109   3.1370   3.3966   5.3554

          k = 0.0000 0.1925 0.0274 (  4186 PWs)   bands (ev):

   -20.5909  -8.5682  -7.0687  -5.9163   2.3243   3.0111   3.5657   5.1403

          k = 0.0000 0.1925 0.0548 (  4183 PWs)   bands (ev):

   -20.5909  -8.5682  -7.0687  -5.9164   2.3560   2.8648   3.8347   4.7904

          k = 0.0000 0.1925-0.0821 (  4174 PWs)   bands (ev):

   -20.5909  -8.5682  -7.0687  -5.9164   2.3757   2.8047   4.0043   4.5889

          k = 0.0000 0.3849 0.0000 (  4180 PWs)   bands (ev):

   -18.6619 -11.3662  -7.5300  -6.3474   3.2025   4.9873   5.8570   5.9818

          k = 0.0000 0.3849 0.0274 (  4186 PWs)   bands (ev):

   -18.6619 -11.3662  -7.5300  -6.3474   3.2025   4.9984   5.7337   6.0098

          k = 0.0000 0.3849 0.0548 (  4186 PWs)   bands (ev):

   -18.6619 -11.3662  -7.5300  -6.3474   3.2025   5.0237   5.5985   6.0190

          k = 0.0000 0.3849-0.0821 (  4180 PWs)   bands (ev):

   -18.6619 -11.3662  -7.5300  -6.3474   3.2025   5.0385   5.5449   6.0205

          k = 0.0000-0.5774 0.0000 (  4184 PWs)   bands (ev):

   -15.9990 -14.9752  -8.1655  -4.0780  -0.0339   5.6878   9.3376   9.4718

          k = 0.0000-0.5774 0.0274 (  4196 PWs)   bands (ev):

   -15.9990 -14.9752  -8.1655  -4.0781  -0.0339   5.6878   9.3439   9.4804

          k = 0.0000-0.5774 0.0548 (  4206 PWs)   bands (ev):

   -15.9990 -14.9752  -8.1655  -4.0781  -0.0339   5.6878   9.3578   9.4996

          k = 0.0000-0.5774-0.0821 (  4212 PWs)   bands (ev):

   -15.9990 -14.9752  -8.1655  -4.0781  -0.0339   5.6878   9.3651   9.5104

          k = 0.1667 0.2887 0.0000 (  4170 PWs)   bands (ev):

   -19.2993  -9.5006  -8.1609  -7.0551   4.1034   4.6735   4.9301   5.2100

          k = 0.1667 0.2887 0.0274 (  4172 PWs)   bands (ev):

   -19.2993  -9.5006  -8.1609  -7.0551   4.1155   4.6736   4.8151   5.3675

          k = 0.1667 0.2887 0.0548 (  4174 PWs)   bands (ev):

   -19.2993  -9.5006  -8.1609  -7.0551   4.1437   4.6736   4.6774   5.6247

          k = 0.1667 0.2887-0.0821 (  4160 PWs)   bands (ev):

   -19.2993  -9.5006  -8.1609  -7.0551   4.1606   4.6215   4.6736   5.7842

          k = 0.1667 0.4811 0.0000 (  4170 PWs)   bands (ev):

   -16.8152 -13.1375  -9.7920  -4.3730   0.8093   7.6380   8.3268   8.3865

          k = 0.1667 0.4811 0.0274 (  4178 PWs)   bands (ev):

   -16.8153 -13.1375  -9.7920  -4.3730   0.8093   7.6466   8.3088   8.3448

          k = 0.1667 0.4811 0.0548 (  4178 PWs)   bands (ev):

   -16.8153 -13.1375  -9.7920  -4.3731   0.8093   7.6655   8.2268   8.3350

          k = 0.1667 0.4811-0.0821 (  4174 PWs)   bands (ev):

   -16.8153 -13.1375  -9.7920  -4.3730   0.8093   7.6761   8.1883   8.3343

          k = 0.3333 0.5774 0.0000 (  4152 PWs)   bands (ev):

   -14.3218 -14.3218 -12.3069  -1.7131  -1.7131   8.9014  11.1611  11.1612

          k = 0.3333 0.5774 0.0274 (  4155 PWs)   bands (ev):

   -14.3218 -14.3218 -12.3069  -1.7131  -1.7131   8.9014  11.1617  11.1618

          k = 0.3333 0.5774 0.0548 (  4164 PWs)   bands (ev):

   -14.3219 -14.3219 -12.3069  -1.7131  -1.7131   8.9013  11.1628  11.1632

          k = 0.3333 0.5774-0.0821 (  4170 PWs)   bands (ev):

   -14.3219 -14.3219 -12.3069  -1.7131  -1.7131   8.9013  11.1634  11.1634

     the Fermi energy is    -1.6752 ev

!    total energy              =     -23.90679018 Ry
     estimated scf accuracy    <          4.9E-09 Ry
     smearing contrib. (-TS)   =      -0.00072930 Ry
     internal energy E=F+TS    =     -23.90606088 Ry

     The total energy is F=E-TS. E is the sum of the following terms:
     one-electron contribution =    -157.39395374 Ry
     hartree contribution      =      80.16187741 Ry
     xc contribution           =      -8.30363166 Ry
     ewald contribution        =      61.62964711 Ry

     convergence has been achieved in  26 iterations

     negative rho (up, down):  1.274E-04 0.000E+00

     Forces acting on atoms (cartesian axes, Ry/au):

     atom    1 type  1   force =     0.00000000    0.00000000    0.00000000
     atom    2 type  1   force =     0.00000000    0.00000000    0.00000000

     Total force =     0.000000     Total SCF correction =     0.000000


     Computing stress (Cartesian axis) and pressure


     negative rho (up, down):  1.274E-04 0.000E+00
          total   stress  (Ry/bohr**3)                   (kbar)     P=        0.58
   0.00000730  -0.00000000  -0.00000000            1.07       -0.00       -0.00
  -0.00000000   0.00000730   0.00000000           -0.00        1.07        0.00
   0.00000000   0.00000000  -0.00000271            0.00        0.00       -0.40


     Writing all to output data dir /home/rfa/Skripsi/DFT/dft-graphene/tmp/gr-1L.save/ :
     XML data file, charge density, pseudopotentials, collected wavefunctions

     init_run     :      0.55s CPU      0.79s WALL (       1 calls)
     electrons    :     20.64s CPU     11.74s WALL (       1 calls)
     forces       :      0.05s CPU      0.03s WALL (       1 calls)
     stress       :      0.16s CPU      0.10s WALL (       1 calls)

     Called by init_run:
     wfcinit      :      0.18s CPU      0.10s WALL (       1 calls)
     potinit      :      0.01s CPU      0.01s WALL (       1 calls)
     hinit0       :      0.34s CPU      0.64s WALL (       1 calls)

     Called by electrons:
     c_bands      :     17.49s CPU      9.80s WALL (      27 calls)
     sum_band     :      2.55s CPU      1.39s WALL (      27 calls)
     v_of_rho     :      0.18s CPU      0.20s WALL (      27 calls)
     newd         :      0.23s CPU      0.20s WALL (      27 calls)
     mix_rho      :      0.16s CPU      0.10s WALL (      27 calls)

     Called by c_bands:
     init_us_2    :      0.41s CPU      0.22s WALL (    1596 calls)
     cegterg      :     16.70s CPU      9.31s WALL (     756 calls)

     Called by *egterg:
     cdiaghg      :      0.85s CPU      0.49s WALL (    3923 calls)
     h_psi        :     13.66s CPU      7.61s WALL (    3979 calls)
     s_psi        :      0.18s CPU      0.10s WALL (    3979 calls)
     g_psi        :      0.15s CPU      0.07s WALL (    3195 calls)

     Called by h_psi:
     h_psi:calbec :      0.85s CPU      0.49s WALL (    3979 calls)
     vloc_psi     :     12.31s CPU      6.82s WALL (    3979 calls)
     add_vuspsi   :      0.31s CPU      0.18s WALL (    3979 calls)

     General routines
     calbec       :      0.98s CPU      0.55s WALL (    5211 calls)
     fft          :      0.40s CPU      0.71s WALL (     323 calls)
     ffts         :      0.01s CPU      0.01s WALL (      27 calls)
     fftw         :     12.06s CPU      6.70s WALL (   47228 calls)

     Parallel routines

     PWSCF        :     21.49s CPU     12.98s WALL


   This run was terminated on:   6: 2: 4  22Apr2025            

=------------------------------------------------------------------------------=
   JOB DONE.
=------------------------------------------------------------------------------=
