
     Program PWSCF v.7.4.1 starts on 22Apr2025 at  6:12:42 

     This program is part of the open-source Quantum ESPRESSO suite
     for quantum simulation of materials; please cite
         "P. Giannozzi et al., J. Phys.:Condens. Matter 21 395502 (2009);
         "P. Giannozzi et al., J. Phys.:Condens. Matter 29 465901 (2017);
         "P. Giannozzi et al., J. Chem. Phys. 152 154105 (2020);
          URL http://www.quantum-espresso.org", 
     in publications or presentations arising from this work. More details at
     http://www.quantum-espresso.org/quote

     Parallel version (MPI), running on     7 processors

     MPI processes distributed on     1 nodes
     11781 MiB available memory on the printing compute node when the environment starts

     Waiting for input...
     Reading input from standard input

     Current dimensions of program PWSCF are:
     Max number of different atomic species (ntypx) = 10
     Max number of k-points (npk) =  40000
     Max angular momentum in pseudopotentials (lmaxx) =  4

     R & G space division:  proc/nbgrp/npool/nimage =       7
     Subspace diagonalization in iterative solution of the eigenvalue problem:
     a serial algorithm will be used


     Parallelization info
     --------------------
     sticks:   dense  smooth     PW     G-vecs:    dense   smooth      PW
     Min          51      51     15                 4783     4783     813
     Max          52      52     16                 4800     4800     834
     Sum         361     361    109                33523    33523    5765

     Using Slab Decomposition



     bravais-lattice index     =            4
     lattice parameter (alat)  =       4.6561  a.u.
     unit-cell volume          =     532.1899 (a.u.)^3
     number of atoms/cell      =            2
     number of atomic types    =            1
     number of electrons       =         8.00
     number of Kohn-Sham states=            8
     kinetic-energy cutoff     =      60.0000  Ry
     charge density cutoff     =     240.0000  Ry
     scf convergence threshold =      1.0E-08
     mixing beta               =       0.7000
     number of iterations used =            8  plain     mixing
     Exchange-correlation= PBE
                           (   1   4   3   4   0   0   0)

     celldm(1)=   4.656107  celldm(2)=   0.000000  celldm(3)=   6.087896
     celldm(4)=   0.000000  celldm(5)=   0.000000  celldm(6)=   0.000000

     crystal axes: (cart. coord. in units of alat)
               a(1) = (   1.000000   0.000000   0.000000 )  
               a(2) = (  -0.500000   0.866025   0.000000 )  
               a(3) = (   0.000000   0.000000   6.087896 )  

     reciprocal axes: (cart. coord. in units 2 pi/alat)
               b(1) = (  1.000000  0.577350 -0.000000 )  
               b(2) = (  0.000000  1.154701  0.000000 )  
               b(3) = (  0.000000 -0.000000  0.164260 )  


     PseudoPot. # 1 for C  read from file:
     /home/rfa/Skripsi/DFT/dft-graphene/pseudo/C.pbe-n-rrkjus_psl.0.1.UPF
     MD5 check sum: 96a6a315177d77e6c95bf6fd3870f9e3
     Pseudo is Ultrasoft + core correction, Zval =  4.0
     Generated using &quot;atomic&quot; code by A. Dal Corso  v.6.3MaX
     Using radial grid of 1073 points,  4 beta functions with: 
                l(1) =   0
                l(2) =   0
                l(3) =   1
                l(4) =   1
     Q(r) pseudized with 0 coefficients 


     atomic species   valence    mass     pseudopotential
     C                 4.00    12.01070     C ( 1.00)

     24 Sym. Ops., with inversion, found



   Cartesian axes

     site n.     atom                  positions (alat units)
         1        C      tau(   1) = (   0.0000000   0.5773503   3.0439478  )
         2        C      tau(   2) = (   0.5000000   0.2886751   3.0439478  )

     number of k points=   484  Marzari-Vanderbilt smearing, width (Ry)=  0.0200

     Number of k-points >= 100: set verbosity='high' to print them.

     Dense  grid:    33523 G-vectors     FFT dimensions: (  24,  24, 144)

     Estimated max dynamical RAM per process >      42.26 MB

     Estimated total dynamical RAM >     295.79 MB

     Check: negative core charge=   -0.000003

     Initial potential from superposition of free atoms

     starting charge       7.9999, renormalised to       8.0000

     negative rho (up, down):  9.023E-05 0.000E+00
     Starting wfcs are    8 randomized atomic wfcs

     total cpu time spent up to now is        2.6 secs

     per-process dynamical memory:    47.7 Mb

     Self-consistent Calculation

     iteration #  1     ecut=    60.00 Ry     beta= 0.70
     Davidson diagonalization with overlap
     ethr =  1.00E-02,  avg # of iterations =  7.5

     Threshold (ethr) on eigenvalues was too large:
     Diagonalizing with lowered threshold

     Davidson diagonalization with overlap
     c_bands:  1 eigenvalues not converged
     ethr =  8.47E-04,  avg # of iterations =  6.7

     negative rho (up, down):  1.236E-05 0.000E+00

     total cpu time spent up to now is       22.4 secs

     WARNING: integrated charge=     8.00121503, expected=     8.00000000

     total energy              =     -23.88180211 Ry
     estimated scf accuracy    <       0.19218196 Ry

     iteration #  2     ecut=    60.00 Ry     beta= 0.70
     Davidson diagonalization with overlap
     ethr =  2.40E-03,  avg # of iterations =  2.1

     negative rho (up, down):  4.043E-05 0.000E+00

     total cpu time spent up to now is       27.6 secs

     WARNING: integrated charge=     8.00147504, expected=     8.00000000

     total energy              =     -23.89219948 Ry
     estimated scf accuracy    <       0.00608944 Ry

     iteration #  3     ecut=    60.00 Ry     beta= 0.70
     Davidson diagonalization with overlap
     c_bands:  1 eigenvalues not converged
     c_bands:  2 eigenvalues not converged
     c_bands:  1 eigenvalues not converged
     c_bands:  2 eigenvalues not converged
     c_bands:  1 eigenvalues not converged
     c_bands:  2 eigenvalues not converged
     c_bands:  1 eigenvalues not converged
     c_bands:  2 eigenvalues not converged
     c_bands:  1 eigenvalues not converged
     c_bands:  2 eigenvalues not converged
     c_bands:  3 eigenvalues not converged
     c_bands:  3 eigenvalues not converged
     c_bands:  1 eigenvalues not converged
     c_bands:  2 eigenvalues not converged
     c_bands:  2 eigenvalues not converged
     c_bands:  1 eigenvalues not converged
     c_bands:  2 eigenvalues not converged
     c_bands:  3 eigenvalues not converged
     c_bands:  1 eigenvalues not converged
     c_bands:  4 eigenvalues not converged
     c_bands:  3 eigenvalues not converged
     c_bands:  4 eigenvalues not converged
     c_bands:  4 eigenvalues not converged
     c_bands:  1 eigenvalues not converged
     c_bands:  2 eigenvalues not converged
     c_bands:  4 eigenvalues not converged
     c_bands:  3 eigenvalues not converged
     c_bands:  3 eigenvalues not converged
     c_bands:  2 eigenvalues not converged
     c_bands:  2 eigenvalues not converged
     c_bands:  2 eigenvalues not converged
     c_bands:  2 eigenvalues not converged
     c_bands:  1 eigenvalues not converged
     c_bands:  3 eigenvalues not converged
     c_bands:  2 eigenvalues not converged
     c_bands:  3 eigenvalues not converged
     c_bands:  2 eigenvalues not converged
     c_bands:  3 eigenvalues not converged
     c_bands:  2 eigenvalues not converged
     c_bands:  2 eigenvalues not converged
     c_bands:  1 eigenvalues not converged
     c_bands:  2 eigenvalues not converged
     c_bands:  1 eigenvalues not converged
     c_bands:  4 eigenvalues not converged
     c_bands:  3 eigenvalues not converged
     c_bands:  1 eigenvalues not converged
     c_bands:  3 eigenvalues not converged
     c_bands:  3 eigenvalues not converged
     c_bands:  1 eigenvalues not converged
     c_bands:  1 eigenvalues not converged
     c_bands:  3 eigenvalues not converged
     c_bands:  1 eigenvalues not converged
     c_bands:  2 eigenvalues not converged
     c_bands:  3 eigenvalues not converged
     c_bands:  3 eigenvalues not converged
     c_bands:  1 eigenvalues not converged
     c_bands:  1 eigenvalues not converged
     c_bands:  1 eigenvalues not converged
     c_bands:  1 eigenvalues not converged
     c_bands:  1 eigenvalues not converged
     c_bands:  1 eigenvalues not converged
     c_bands:  1 eigenvalues not converged
     c_bands:  1 eigenvalues not converged
     c_bands:  1 eigenvalues not converged
     c_bands:  2 eigenvalues not converged
     c_bands:  1 eigenvalues not converged
     c_bands:  1 eigenvalues not converged
     c_bands:  1 eigenvalues not converged
     c_bands:  1 eigenvalues not converged
     c_bands:  1 eigenvalues not converged
     c_bands:  3 eigenvalues not converged
     c_bands:  1 eigenvalues not converged
     c_bands:  1 eigenvalues not converged
     c_bands:  1 eigenvalues not converged
     c_bands:  3 eigenvalues not converged
     c_bands:  2 eigenvalues not converged
     c_bands:  2 eigenvalues not converged
     c_bands:  1 eigenvalues not converged
     c_bands:  2 eigenvalues not converged
     c_bands:  2 eigenvalues not converged
     c_bands:  2 eigenvalues not converged
     c_bands:  1 eigenvalues not converged
     c_bands:  3 eigenvalues not converged
     c_bands:  1 eigenvalues not converged
     c_bands:  2 eigenvalues not converged
     c_bands:  1 eigenvalues not converged
     c_bands:  2 eigenvalues not converged
     c_bands:  1 eigenvalues not converged
     c_bands:  1 eigenvalues not converged
     c_bands:  1 eigenvalues not converged
     c_bands:  2 eigenvalues not converged
     c_bands:  3 eigenvalues not converged
     c_bands:  1 eigenvalues not converged
     c_bands:  2 eigenvalues not converged
     c_bands:  2 eigenvalues not converged
     c_bands:  2 eigenvalues not converged
     c_bands:  1 eigenvalues not converged
     c_bands:  1 eigenvalues not converged
     c_bands:  2 eigenvalues not converged
     c_bands:  1 eigenvalues not converged
     c_bands:  3 eigenvalues not converged
     c_bands:  3 eigenvalues not converged
     c_bands:  3 eigenvalues not converged
     c_bands:  2 eigenvalues not converged
     c_bands:  1 eigenvalues not converged
     c_bands:  2 eigenvalues not converged
     c_bands:  1 eigenvalues not converged
     c_bands:  3 eigenvalues not converged
     c_bands:  3 eigenvalues not converged
     c_bands:  3 eigenvalues not converged
     c_bands:  2 eigenvalues not converged
     c_bands:  2 eigenvalues not converged
     c_bands:  3 eigenvalues not converged
     c_bands:  2 eigenvalues not converged
     c_bands:  2 eigenvalues not converged
     c_bands:  1 eigenvalues not converged
     c_bands:  2 eigenvalues not converged
     c_bands:  2 eigenvalues not converged
     c_bands:  2 eigenvalues not converged
     c_bands:  2 eigenvalues not converged
     c_bands:  2 eigenvalues not converged
     c_bands:  1 eigenvalues not converged
     c_bands:  1 eigenvalues not converged
     c_bands:  1 eigenvalues not converged
     c_bands:  1 eigenvalues not converged
     c_bands:  2 eigenvalues not converged
     c_bands:  1 eigenvalues not converged
     c_bands:  1 eigenvalues not converged
     c_bands:  1 eigenvalues not converged
     c_bands:  1 eigenvalues not converged
     c_bands:  1 eigenvalues not converged
     c_bands:  1 eigenvalues not converged
     c_bands:  1 eigenvalues not converged
     c_bands:  1 eigenvalues not converged
     c_bands:  1 eigenvalues not converged
     c_bands:  2 eigenvalues not converged
     c_bands:  3 eigenvalues not converged
     c_bands:  1 eigenvalues not converged
     c_bands:  1 eigenvalues not converged
     c_bands:  1 eigenvalues not converged
     c_bands:  3 eigenvalues not converged
     c_bands:  2 eigenvalues not converged
     c_bands:  3 eigenvalues not converged
     c_bands:  4 eigenvalues not converged
     c_bands:  1 eigenvalues not converged
     c_bands:  1 eigenvalues not converged
     c_bands:  5 eigenvalues not converged
     c_bands:  1 eigenvalues not converged
     c_bands:  4 eigenvalues not converged
     c_bands:  2 eigenvalues not converged
     c_bands:  1 eigenvalues not converged
     c_bands:  2 eigenvalues not converged
     c_bands:  2 eigenvalues not converged
     c_bands:  3 eigenvalues not converged
     c_bands:  3 eigenvalues not converged
     c_bands:  3 eigenvalues not converged
     c_bands:  1 eigenvalues not converged
     c_bands:  1 eigenvalues not converged
     c_bands:  2 eigenvalues not converged
     c_bands:  2 eigenvalues not converged
     c_bands:  1 eigenvalues not converged
     c_bands:  3 eigenvalues not converged
     c_bands:  1 eigenvalues not converged
     c_bands:  2 eigenvalues not converged
     c_bands:  2 eigenvalues not converged
     c_bands:  2 eigenvalues not converged
     c_bands:  2 eigenvalues not converged
     c_bands:  3 eigenvalues not converged
     c_bands:  2 eigenvalues not converged
     c_bands:  2 eigenvalues not converged
     c_bands:  2 eigenvalues not converged
     c_bands:  1 eigenvalues not converged
     c_bands:  1 eigenvalues not converged
     c_bands:  2 eigenvalues not converged
     c_bands:  2 eigenvalues not converged
     c_bands:  1 eigenvalues not converged
     c_bands:  1 eigenvalues not converged
     c_bands:  1 eigenvalues not converged
     c_bands:  1 eigenvalues not converged
     c_bands:  1 eigenvalues not converged
     c_bands:  1 eigenvalues not converged
     c_bands:  1 eigenvalues not converged
     c_bands:  1 eigenvalues not converged
     c_bands:  1 eigenvalues not converged
     c_bands:  3 eigenvalues not converged
     c_bands:  2 eigenvalues not converged
     c_bands:  1 eigenvalues not converged
     c_bands:  2 eigenvalues not converged
     c_bands:  1 eigenvalues not converged
     c_bands:  2 eigenvalues not converged
     c_bands:  1 eigenvalues not converged
     c_bands:  3 eigenvalues not converged
     c_bands:  1 eigenvalues not converged
     c_bands:  1 eigenvalues not converged
     c_bands:  1 eigenvalues not converged
     c_bands:  1 eigenvalues not converged
     c_bands:  1 eigenvalues not converged
     c_bands:  2 eigenvalues not converged
     c_bands:  1 eigenvalues not converged
     c_bands:  2 eigenvalues not converged
     c_bands:  2 eigenvalues not converged
     c_bands:  2 eigenvalues not converged
     c_bands:  1 eigenvalues not converged
     c_bands:  2 eigenvalues not converged
     c_bands:  1 eigenvalues not converged
     c_bands:  2 eigenvalues not converged
     c_bands:  1 eigenvalues not converged
     c_bands:  3 eigenvalues not converged
     c_bands:  2 eigenvalues not converged
     c_bands:  2 eigenvalues not converged
     c_bands:  1 eigenvalues not converged
     c_bands:  2 eigenvalues not converged
     c_bands:  1 eigenvalues not converged
     c_bands:  2 eigenvalues not converged
     c_bands:  1 eigenvalues not converged
     c_bands:  1 eigenvalues not converged
     c_bands:  1 eigenvalues not converged
     c_bands:  1 eigenvalues not converged
     c_bands:  1 eigenvalues not converged
     c_bands:  1 eigenvalues not converged
     c_bands:  1 eigenvalues not converged
     c_bands:  1 eigenvalues not converged
     c_bands:  1 eigenvalues not converged
     c_bands:  1 eigenvalues not converged
     c_bands:  1 eigenvalues not converged
     c_bands:  1 eigenvalues not converged
     c_bands:  1 eigenvalues not converged
     c_bands:  1 eigenvalues not converged
     c_bands:  1 eigenvalues not converged
     c_bands:  2 eigenvalues not converged
     c_bands:  1 eigenvalues not converged
     c_bands:  2 eigenvalues not converged
     c_bands:  2 eigenvalues not converged
     c_bands:  2 eigenvalues not converged
     c_bands:  1 eigenvalues not converged
     c_bands:  2 eigenvalues not converged
     c_bands:  2 eigenvalues not converged
     c_bands:  2 eigenvalues not converged
     c_bands:  1 eigenvalues not converged
     c_bands:  1 eigenvalues not converged
     c_bands:  1 eigenvalues not converged
     c_bands:  1 eigenvalues not converged
     c_bands:  1 eigenvalues not converged
     c_bands:  1 eigenvalues not converged
     c_bands:  2 eigenvalues not converged
     c_bands:  2 eigenvalues not converged
     c_bands:  1 eigenvalues not converged
     c_bands:  1 eigenvalues not converged
     c_bands:  2 eigenvalues not converged
     c_bands:  2 eigenvalues not converged
     c_bands:  1 eigenvalues not converged
     c_bands:  1 eigenvalues not converged
     c_bands:  1 eigenvalues not converged
     c_bands:  1 eigenvalues not converged
     c_bands:  1 eigenvalues not converged
     c_bands:  1 eigenvalues not converged
     c_bands:  1 eigenvalues not converged
     c_bands:  1 eigenvalues not converged
     c_bands:  1 eigenvalues not converged
     c_bands:  1 eigenvalues not converged
     c_bands:  1 eigenvalues not converged
     c_bands:  1 eigenvalues not converged
     c_bands:  1 eigenvalues not converged
     c_bands:  1 eigenvalues not converged
     c_bands:  1 eigenvalues not converged
     c_bands:  2 eigenvalues not converged
     c_bands:  1 eigenvalues not converged
     c_bands:  2 eigenvalues not converged
     c_bands:  1 eigenvalues not converged
     c_bands:  3 eigenvalues not converged
     c_bands:  1 eigenvalues not converged
     c_bands:  1 eigenvalues not converged
     c_bands:  2 eigenvalues not converged
     c_bands:  1 eigenvalues not converged
     c_bands:  1 eigenvalues not converged
     c_bands:  1 eigenvalues not converged
     c_bands:  2 eigenvalues not converged
     c_bands:  1 eigenvalues not converged
     c_bands:  2 eigenvalues not converged
     c_bands:  2 eigenvalues not converged
     c_bands:  2 eigenvalues not converged
     c_bands:  1 eigenvalues not converged
     c_bands:  2 eigenvalues not converged
     c_bands:  1 eigenvalues not converged
     c_bands:  1 eigenvalues not converged
     c_bands:  1 eigenvalues not converged
     c_bands:  1 eigenvalues not converged
     c_bands:  3 eigenvalues not converged
     c_bands:  3 eigenvalues not converged
     c_bands:  2 eigenvalues not converged
     c_bands:  1 eigenvalues not converged
     c_bands:  2 eigenvalues not converged
     c_bands:  2 eigenvalues not converged
     c_bands:  1 eigenvalues not converged
     c_bands:  1 eigenvalues not converged
     c_bands:  3 eigenvalues not converged
     c_bands:  1 eigenvalues not converged
     c_bands:  2 eigenvalues not converged
     c_bands:  3 eigenvalues not converged
     c_bands:  3 eigenvalues not converged
     c_bands:  1 eigenvalues not converged
     c_bands:  3 eigenvalues not converged
     c_bands:  2 eigenvalues not converged
     c_bands:  3 eigenvalues not converged
     ethr =  7.61E-05,  avg # of iterations = 19.0

     negative rho (up, down):  3.797E-05 0.000E+00

     total cpu time spent up to now is       53.8 secs

     WARNING: integrated charge=     8.00147583, expected=     8.00000000

     total energy              =     -23.91481667 Ry
     estimated scf accuracy    <       0.00785632 Ry

     iteration #  4     ecut=    60.00 Ry     beta= 0.70
     Davidson diagonalization with overlap
     ethr =  7.61E-05,  avg # of iterations =  4.5

     negative rho (up, down):  4.709E-05 0.000E+00

     total cpu time spent up to now is       61.3 secs

     WARNING: integrated charge=     8.00155573, expected=     8.00000000

     total energy              =     -23.91842547 Ry
     estimated scf accuracy    <       0.01092349 Ry

     iteration #  5     ecut=    60.00 Ry     beta= 0.70
     Davidson diagonalization with overlap
     ethr =  7.61E-05,  avg # of iterations =  1.4

     negative rho (up, down):  8.041E-05 0.000E+00

     total cpu time spent up to now is       66.1 secs

     WARNING: integrated charge=     8.00157153, expected=     8.00000000

     total energy              =     -23.91058819 Ry
     estimated scf accuracy    <       0.01619811 Ry

     iteration #  6     ecut=    60.00 Ry     beta= 0.70
     Davidson diagonalization with overlap
     ethr =  7.61E-05,  avg # of iterations =  2.2

     negative rho (up, down):  8.415E-05 0.000E+00

     total cpu time spent up to now is       71.4 secs

     WARNING: integrated charge=     8.00157060, expected=     8.00000000

     total energy              =     -23.91083655 Ry
     estimated scf accuracy    <       0.00407661 Ry

     iteration #  7     ecut=    60.00 Ry     beta= 0.70
     Davidson diagonalization with overlap
     ethr =  5.10E-05,  avg # of iterations =  1.5

     negative rho (up, down):  8.133E-05 0.000E+00

     total cpu time spent up to now is       76.3 secs

     WARNING: integrated charge=     8.00157041, expected=     8.00000000

     total energy              =     -23.91121192 Ry
     estimated scf accuracy    <       0.00295441 Ry

     iteration #  8     ecut=    60.00 Ry     beta= 0.70
     Davidson diagonalization with overlap
     ethr =  3.69E-05,  avg # of iterations =  1.7

     negative rho (up, down):  8.136E-05 0.000E+00

     total cpu time spent up to now is       81.2 secs

     WARNING: integrated charge=     8.00157044, expected=     8.00000000

     total energy              =     -23.91128608 Ry
     estimated scf accuracy    <       0.00302427 Ry

     iteration #  9     ecut=    60.00 Ry     beta= 0.70
     Davidson diagonalization with overlap
     ethr =  3.69E-05,  avg # of iterations =  1.1

     negative rho (up, down):  8.230E-05 0.000E+00

     total cpu time spent up to now is       85.8 secs

     WARNING: integrated charge=     8.00157076, expected=     8.00000000

     total energy              =     -23.91122479 Ry
     estimated scf accuracy    <       0.00288980 Ry

     iteration # 10     ecut=    60.00 Ry     beta= 0.70
     Davidson diagonalization with overlap
     ethr =  3.61E-05,  avg # of iterations =  1.1

     negative rho (up, down):  6.528E-05 0.000E+00

     total cpu time spent up to now is       90.4 secs

     WARNING: integrated charge=     8.00156754, expected=     8.00000000

     total energy              =     -23.91327487 Ry
     estimated scf accuracy    <       0.00263533 Ry

     iteration # 11     ecut=    60.00 Ry     beta= 0.70
     Davidson diagonalization with overlap
     ethr =  3.29E-05,  avg # of iterations =  1.5

     negative rho (up, down):  1.493E-04 0.000E+00

     total cpu time spent up to now is       95.2 secs

     WARNING: integrated charge=     8.00157284, expected=     8.00000000

     total energy              =     -23.90931190 Ry
     estimated scf accuracy    <       0.00646175 Ry

     iteration # 12     ecut=    60.00 Ry     beta= 0.70
     Davidson diagonalization with overlap
     c_bands:  1 eigenvalues not converged
     c_bands:  1 eigenvalues not converged
     ethr =  3.29E-05,  avg # of iterations =  4.7

     negative rho (up, down):  1.405E-04 0.000E+00

     total cpu time spent up to now is      102.0 secs

     WARNING: integrated charge=     8.00157222, expected=     8.00000000

     total energy              =     -23.91052529 Ry
     estimated scf accuracy    <       0.00073221 Ry

     iteration # 13     ecut=    60.00 Ry     beta= 0.70
     Davidson diagonalization with overlap
     c_bands:  2 eigenvalues not converged
     c_bands:  1 eigenvalues not converged
     c_bands:  1 eigenvalues not converged
     c_bands:  1 eigenvalues not converged
     c_bands:  1 eigenvalues not converged
     c_bands:  1 eigenvalues not converged
     c_bands:  1 eigenvalues not converged
     c_bands:  2 eigenvalues not converged
     c_bands:  1 eigenvalues not converged
     c_bands:  2 eigenvalues not converged
     ethr =  9.15E-06,  avg # of iterations =  5.8

     negative rho (up, down):  1.404E-04 0.000E+00

     total cpu time spent up to now is      109.7 secs

     WARNING: integrated charge=     8.00157224, expected=     8.00000000

     total energy              =     -23.91080198 Ry
     estimated scf accuracy    <       0.00076201 Ry

     iteration # 14     ecut=    60.00 Ry     beta= 0.70
     Davidson diagonalization with overlap
     ethr =  9.15E-06,  avg # of iterations =  1.5

     negative rho (up, down):  1.489E-04 0.000E+00

     total cpu time spent up to now is      114.5 secs

     WARNING: integrated charge=     8.00157241, expected=     8.00000000

     total energy              =     -23.91090982 Ry
     estimated scf accuracy    <       0.00076423 Ry

     iteration # 15     ecut=    60.00 Ry     beta= 0.70
     Davidson diagonalization with overlap
     ethr =  9.15E-06,  avg # of iterations =  1.2

     negative rho (up, down):  2.196E-04 0.000E+00

     total cpu time spent up to now is      119.2 secs

     WARNING: integrated charge=     8.00157410, expected=     8.00000000

     total energy              =     -23.91138942 Ry
     estimated scf accuracy    <       0.00092165 Ry

     iteration # 16     ecut=    60.00 Ry     beta= 0.70
     Davidson diagonalization with overlap
     c_bands:  2 eigenvalues not converged
     c_bands:  1 eigenvalues not converged
     ethr =  9.15E-06,  avg # of iterations =  2.3

     negative rho (up, down):  1.972E-04 0.000E+00

     total cpu time spent up to now is      124.6 secs

     WARNING: integrated charge=     8.00157529, expected=     8.00000000

     total energy              =     -23.91127019 Ry
     estimated scf accuracy    <       0.00189153 Ry

     iteration # 17     ecut=    60.00 Ry     beta= 0.70
     Davidson diagonalization with overlap
     ethr =  9.15E-06,  avg # of iterations =  1.4

     negative rho (up, down):  1.308E-04 0.000E+00

     total cpu time spent up to now is      129.5 secs

     WARNING: integrated charge=     8.00156960, expected=     8.00000000

     total energy              =     -23.91076379 Ry
     estimated scf accuracy    <       0.00168486 Ry

     iteration # 18     ecut=    60.00 Ry     beta= 0.70
     Davidson diagonalization with overlap
     c_bands:  1 eigenvalues not converged
     ethr =  9.15E-06,  avg # of iterations =  1.6

     negative rho (up, down):  1.238E-04 0.000E+00

     total cpu time spent up to now is      134.4 secs

     WARNING: integrated charge=     8.00157200, expected=     8.00000000

     total energy              =     -23.91109227 Ry
     estimated scf accuracy    <       0.00079414 Ry

     iteration # 19     ecut=    60.00 Ry     beta= 0.70
     Davidson diagonalization with overlap
     ethr =  9.15E-06,  avg # of iterations =  1.2

     negative rho (up, down):  1.071E-04 0.000E+00

     total cpu time spent up to now is      139.1 secs

     WARNING: integrated charge=     8.00158837, expected=     8.00000000

     total energy              =     -23.91350558 Ry
     estimated scf accuracy    <       0.00137688 Ry

     iteration # 20     ecut=    60.00 Ry     beta= 0.70
     Davidson diagonalization with overlap
     c_bands:  1 eigenvalues not converged
     c_bands:  1 eigenvalues not converged
     c_bands:  1 eigenvalues not converged
     c_bands:  1 eigenvalues not converged
     ethr =  9.15E-06,  avg # of iterations =  3.3

     negative rho (up, down):  1.415E-04 0.000E+00

     total cpu time spent up to now is      145.4 secs

     WARNING: integrated charge=     8.00155213, expected=     8.00000000

     total energy              =     -23.90949437 Ry
     estimated scf accuracy    <       0.00686948 Ry

     iteration # 21     ecut=    60.00 Ry     beta= 0.70
     Davidson diagonalization with overlap
     c_bands:  1 eigenvalues not converged
     c_bands:  1 eigenvalues not converged
     ethr =  9.15E-06,  avg # of iterations =  4.9

     negative rho (up, down):  1.311E-04 0.000E+00

     total cpu time spent up to now is      153.1 secs

     WARNING: integrated charge=     8.00155702, expected=     8.00000000

     total energy              =     -23.91041249 Ry
     estimated scf accuracy    <       0.00015550 Ry

     iteration # 22     ecut=    60.00 Ry     beta= 0.70
     Davidson diagonalization with overlap
     c_bands:  1 eigenvalues not converged
     c_bands:  1 eigenvalues not converged
     c_bands:  1 eigenvalues not converged
     c_bands:  1 eigenvalues not converged
     c_bands:  1 eigenvalues not converged
     c_bands:  1 eigenvalues not converged
     c_bands:  1 eigenvalues not converged
     ethr =  1.94E-06,  avg # of iterations =  4.6

     negative rho (up, down):  1.300E-04 0.000E+00

     total cpu time spent up to now is      160.0 secs

     WARNING: integrated charge=     8.00155953, expected=     8.00000000

     total energy              =     -23.91045035 Ry
     estimated scf accuracy    <       0.00002110 Ry

     iteration # 23     ecut=    60.00 Ry     beta= 0.70
     Davidson diagonalization with overlap
     c_bands:  1 eigenvalues not converged
     c_bands:  1 eigenvalues not converged
     c_bands:  1 eigenvalues not converged
     ethr =  2.64E-07,  avg # of iterations =  4.7

     negative rho (up, down):  1.276E-04 0.000E+00

     total cpu time spent up to now is      167.6 secs

     WARNING: integrated charge=     8.00156119, expected=     8.00000000

     total energy              =     -23.91049498 Ry
     estimated scf accuracy    <       0.00001792 Ry

     iteration # 24     ecut=    60.00 Ry     beta= 0.70
     Davidson diagonalization with overlap
     c_bands:  1 eigenvalues not converged
     ethr =  2.24E-07,  avg # of iterations =  1.7

     negative rho (up, down):  1.267E-04 0.000E+00

     total cpu time spent up to now is      172.5 secs

     WARNING: integrated charge=     8.00155674, expected=     8.00000000

     total energy              =     -23.91046998 Ry
     estimated scf accuracy    <       0.00003725 Ry

     iteration # 25     ecut=    60.00 Ry     beta= 0.70
     Davidson diagonalization with overlap
     c_bands:  1 eigenvalues not converged
     c_bands:  1 eigenvalues not converged
     c_bands:  1 eigenvalues not converged
     ethr =  2.24E-07,  avg # of iterations =  2.6

     negative rho (up, down):  1.296E-04 0.000E+00

     total cpu time spent up to now is      178.2 secs

     WARNING: integrated charge=     8.00155868, expected=     8.00000000

     total energy              =     -23.91047665 Ry
     estimated scf accuracy    <       0.00000381 Ry

     iteration # 26     ecut=    60.00 Ry     beta= 0.70
     Davidson diagonalization with overlap
     ethr =  4.76E-08,  avg # of iterations =  2.5

     negative rho (up, down):  1.278E-04 0.000E+00

     total cpu time spent up to now is      183.7 secs

     WARNING: integrated charge=     8.00155637, expected=     8.00000000

     total energy              =     -23.91047602 Ry
     estimated scf accuracy    <       0.00000626 Ry

     iteration # 27     ecut=    60.00 Ry     beta= 0.70
     Davidson diagonalization with overlap
     ethr =  4.76E-08,  avg # of iterations =  4.2

     negative rho (up, down):  1.281E-04 0.000E+00

     total cpu time spent up to now is      191.3 secs

     WARNING: integrated charge=     8.00155894, expected=     8.00000000

     total energy              =     -23.91047463 Ry
     estimated scf accuracy    <       0.00000996 Ry

     iteration # 28     ecut=    60.00 Ry     beta= 0.70
     Davidson diagonalization with overlap
     ethr =  4.76E-08,  avg # of iterations =  4.7

     negative rho (up, down):  1.275E-04 0.000E+00

     total cpu time spent up to now is      198.3 secs

     WARNING: integrated charge=     8.00155858, expected=     8.00000000

     total energy              =     -23.91047669 Ry
     estimated scf accuracy    <       0.00000253 Ry

     iteration # 29     ecut=    60.00 Ry     beta= 0.70
     Davidson diagonalization with overlap
     ethr =  3.17E-08,  avg # of iterations =  1.1

     negative rho (up, down):  1.267E-04 0.000E+00

     total cpu time spent up to now is      203.0 secs

     WARNING: integrated charge=     8.00155810, expected=     8.00000000

     total energy              =     -23.91047654 Ry
     estimated scf accuracy    <       0.00000040 Ry

     iteration # 30     ecut=    60.00 Ry     beta= 0.70
     Davidson diagonalization with overlap
     c_bands:  1 eigenvalues not converged
     ethr =  5.02E-09,  avg # of iterations =  4.4

     negative rho (up, down):  1.270E-04 0.000E+00

     total cpu time spent up to now is      210.3 secs

     WARNING: integrated charge=     8.00155827, expected=     8.00000000

     total energy              =     -23.91047686 Ry
     estimated scf accuracy    <       0.00000043 Ry

     iteration # 31     ecut=    60.00 Ry     beta= 0.70
     Davidson diagonalization with overlap
     ethr =  5.02E-09,  avg # of iterations =  1.2

     negative rho (up, down):  1.272E-04 0.000E+00

     total cpu time spent up to now is      215.0 secs

     WARNING: integrated charge=     8.00155835, expected=     8.00000000

     total energy              =     -23.91047684 Ry
     estimated scf accuracy    <       0.00000012 Ry

     iteration # 32     ecut=    60.00 Ry     beta= 0.70
     Davidson diagonalization with overlap
     ethr =  1.45E-09,  avg # of iterations =  2.5

     negative rho (up, down):  1.271E-04 0.000E+00

     total cpu time spent up to now is      220.8 secs

     End of self-consistent calculation

     Number of k-points >= 100: set verbosity='high' to print the bands.

     the Fermi energy is    -1.5414 ev

     WARNING: integrated charge=     8.00155837, expected=     8.00000000

!    total energy              =     -23.91047689 Ry
     estimated scf accuracy    <          3.5E-09 Ry
     smearing contrib. (-TS)   =       0.00002951 Ry
     internal energy E=F+TS    =     -23.91050640 Ry

     The total energy is F=E-TS. E is the sum of the following terms:
     one-electron contribution =    -157.42115154 Ry
     hartree contribution      =      80.18549481 Ry
     xc contribution           =      -8.30449679 Ry
     ewald contribution        =      61.62964711 Ry

     convergence has been achieved in  32 iterations

     negative rho (up, down):  1.271E-04 0.000E+00

     Forces acting on atoms (cartesian axes, Ry/au):

     atom    1 type  1   force =     0.00000000    0.00000000    0.00000000
     atom    2 type  1   force =     0.00000000    0.00000000    0.00000000

     Total force =     0.000000     Total SCF correction =     0.000000


     Computing stress (Cartesian axis) and pressure


     negative rho (up, down):  1.271E-04 0.000E+00
          total   stress  (Ry/bohr**3)                   (kbar)     P=       -0.19
  -0.00000045  -0.00000000   0.00000000           -0.07       -0.00        0.00
  -0.00000000  -0.00000045   0.00000000           -0.00       -0.07        0.00
   0.00000000   0.00000000  -0.00000300            0.00        0.00       -0.44


     Writing all to output data dir /home/rfa/Skripsi/DFT/dft-graphene/tmp/gr-1L.save/ :
     XML data file, charge density, pseudopotentials, collected wavefunctions

     init_run     :      3.65s CPU      2.52s WALL (       1 calls)
     electrons    :    391.23s CPU    218.18s WALL (       1 calls)
     forces       :      0.46s CPU      0.24s WALL (       1 calls)
     stress       :      2.27s CPU      1.17s WALL (       1 calls)

     Called by init_run:
     wfcinit      :      3.26s CPU      1.81s WALL (       1 calls)
     potinit      :      0.01s CPU      0.01s WALL (       1 calls)
     hinit0       :      0.33s CPU      0.65s WALL (       1 calls)

     Called by electrons:
     c_bands      :    342.63s CPU    191.18s WALL (      33 calls)
     sum_band     :     47.83s CPU     26.38s WALL (      33 calls)
     v_of_rho     :      0.24s CPU      0.24s WALL (      33 calls)
     newd         :      0.25s CPU      0.22s WALL (      33 calls)
     mix_rho      :      0.24s CPU      0.13s WALL (      33 calls)

     Called by c_bands:
     init_us_2    :      9.23s CPU      4.84s WALL (   33396 calls)
     cegterg      :    325.57s CPU    180.72s WALL (   15973 calls)

     Called by *egterg:
     cdiaghg      :     16.96s CPU      9.26s WALL (   69944 calls)
     h_psi        :    269.04s CPU    149.68s WALL (   70912 calls)
     s_psi        :      3.64s CPU      2.00s WALL (   70912 calls)
     g_psi        :      2.53s CPU      1.34s WALL (   54455 calls)

     Called by h_psi:
     h_psi:calbec :     16.26s CPU      8.95s WALL (   70912 calls)
     vloc_psi     :    242.34s CPU    134.78s WALL (   70912 calls)
     add_vuspsi   :      6.58s CPU      3.57s WALL (   70912 calls)

     General routines
     calbec       :     18.29s CPU      9.95s WALL (   95112 calls)
     fft          :      0.43s CPU      0.74s WALL (     389 calls)
     ffts         :      0.02s CPU      0.01s WALL (      33 calls)
     fftw         :    245.05s CPU    136.65s WALL (  858714 calls)

     Parallel routines

     PWSCF        :   6m38.17s CPU   3m46.20s WALL


   This run was terminated on:   6:16:28  22Apr2025            

=------------------------------------------------------------------------------=
   JOB DONE.
=------------------------------------------------------------------------------=
