
     Program PWSCF v.7.4.1 starts on 22Apr2025 at  6: 2:23 

     This program is part of the open-source Quantum ESPRESSO suite
     for quantum simulation of materials; please cite
         "P. Giannozzi et al., J. Phys.:Condens. Matter 21 395502 (2009);
         "P. Giannozzi et al., J. Phys.:Condens. Matter 29 465901 (2017);
         "P. Giannozzi et al., J. Chem. Phys. 152 154105 (2020);
          URL http://www.quantum-espresso.org", 
     in publications or presentations arising from this work. More details at
     http://www.quantum-espresso.org/quote

     Parallel version (MPI), running on     7 processors

     MPI processes distributed on     1 nodes
     12160 MiB available memory on the printing compute node when the environment starts

     Waiting for input...
     Reading input from standard input

     Current dimensions of program PWSCF are:
     Max number of different atomic species (ntypx) = 10
     Max number of k-points (npk) =  40000
     Max angular momentum in pseudopotentials (lmaxx) =  4

     R & G space division:  proc/nbgrp/npool/nimage =       7
     Subspace diagonalization in iterative solution of the eigenvalue problem:
     a serial algorithm will be used


     Parallelization info
     --------------------
     sticks:   dense  smooth     PW     G-vecs:    dense   smooth      PW
     Min          51      51     15                 4783     4783     807
     Max          52      52     16                 4800     4800     830
     Sum         361     361    109                33523    33523    5741

     Using Slab Decomposition



     bravais-lattice index     =            4
     lattice parameter (alat)  =       4.6561  a.u.
     unit-cell volume          =     532.1899 (a.u.)^3
     number of atoms/cell      =            2
     number of atomic types    =            1
     number of electrons       =         8.00
     number of Kohn-Sham states=            8
     kinetic-energy cutoff     =      60.0000  Ry
     charge density cutoff     =     240.0000  Ry
     scf convergence threshold =      1.0E-08
     mixing beta               =       0.7000
     number of iterations used =            8  plain     mixing
     Exchange-correlation= PBE
                           (   1   4   3   4   0   0   0)

     celldm(1)=   4.656107  celldm(2)=   0.000000  celldm(3)=   6.087896
     celldm(4)=   0.000000  celldm(5)=   0.000000  celldm(6)=   0.000000

     crystal axes: (cart. coord. in units of alat)
               a(1) = (   1.000000   0.000000   0.000000 )  
               a(2) = (  -0.500000   0.866025   0.000000 )  
               a(3) = (   0.000000   0.000000   6.087896 )  

     reciprocal axes: (cart. coord. in units 2 pi/alat)
               b(1) = (  1.000000  0.577350 -0.000000 )  
               b(2) = (  0.000000  1.154701  0.000000 )  
               b(3) = (  0.000000 -0.000000  0.164260 )  


     PseudoPot. # 1 for C  read from file:
     /home/rfa/Skripsi/DFT/dft-graphene/pseudo/C.pbe-n-rrkjus_psl.0.1.UPF
     MD5 check sum: 96a6a315177d77e6c95bf6fd3870f9e3
     Pseudo is Ultrasoft + core correction, Zval =  4.0
     Generated using &quot;atomic&quot; code by A. Dal Corso  v.6.3MaX
     Using radial grid of 1073 points,  4 beta functions with: 
                l(1) =   0
                l(2) =   0
                l(3) =   1
                l(4) =   1
     Q(r) pseudized with 0 coefficients 


     atomic species   valence    mass     pseudopotential
     C                 4.00    12.01070     C ( 1.00)

     24 Sym. Ops., with inversion, found



   Cartesian axes

     site n.     atom                  positions (alat units)
         1        C      tau(   1) = (   0.0000000   0.5773503   3.0439478  )
         2        C      tau(   2) = (   0.5000000   0.2886751   3.0439478  )

     number of k points=    50  Marzari-Vanderbilt smearing, width (Ry)=  0.0200
                       cart. coord. in units 2pi/alat
        k(    1) = (   0.0000000   0.0000000   0.0000000), wk =   0.0039062
        k(    2) = (   0.0000000   0.0000000   0.0205325), wk =   0.0078125
        k(    3) = (   0.0000000   0.0000000   0.0410651), wk =   0.0078125
        k(    4) = (   0.0000000   0.0000000   0.0615976), wk =   0.0078125
        k(    5) = (   0.0000000   0.0000000  -0.0821302), wk =   0.0039062
        k(    6) = (   0.0000000   0.1443376   0.0000000), wk =   0.0234375
        k(    7) = (   0.0000000   0.1443376   0.0205325), wk =   0.0468750
        k(    8) = (   0.0000000   0.1443376   0.0410651), wk =   0.0468750
        k(    9) = (   0.0000000   0.1443376   0.0615976), wk =   0.0468750
        k(   10) = (   0.0000000   0.1443376  -0.0821302), wk =   0.0234375
        k(   11) = (   0.0000000   0.2886751   0.0000000), wk =   0.0234375
        k(   12) = (   0.0000000   0.2886751   0.0205325), wk =   0.0468750
        k(   13) = (   0.0000000   0.2886751   0.0410651), wk =   0.0468750
        k(   14) = (   0.0000000   0.2886751   0.0615976), wk =   0.0468750
        k(   15) = (   0.0000000   0.2886751  -0.0821302), wk =   0.0234375
        k(   16) = (   0.0000000   0.4330127   0.0000000), wk =   0.0234375
        k(   17) = (   0.0000000   0.4330127   0.0205325), wk =   0.0468750
        k(   18) = (   0.0000000   0.4330127   0.0410651), wk =   0.0468750
        k(   19) = (   0.0000000   0.4330127   0.0615976), wk =   0.0468750
        k(   20) = (   0.0000000   0.4330127  -0.0821302), wk =   0.0234375
        k(   21) = (   0.0000000  -0.5773503   0.0000000), wk =   0.0117188
        k(   22) = (   0.0000000  -0.5773503   0.0205325), wk =   0.0234375
        k(   23) = (   0.0000000  -0.5773503   0.0410651), wk =   0.0234375
        k(   24) = (   0.0000000  -0.5773503   0.0615976), wk =   0.0234375
        k(   25) = (   0.0000000  -0.5773503  -0.0821302), wk =   0.0117188
        k(   26) = (   0.1250000   0.2165064   0.0000000), wk =   0.0234375
        k(   27) = (   0.1250000   0.2165064   0.0205325), wk =   0.0468750
        k(   28) = (   0.1250000   0.2165064   0.0410651), wk =   0.0468750
        k(   29) = (   0.1250000   0.2165064   0.0615976), wk =   0.0468750
        k(   30) = (   0.1250000   0.2165064  -0.0821302), wk =   0.0234375
        k(   31) = (   0.1250000   0.3608439   0.0000000), wk =   0.0468750
        k(   32) = (   0.1250000   0.3608439   0.0205325), wk =   0.0937500
        k(   33) = (   0.1250000   0.3608439   0.0410651), wk =   0.0937500
        k(   34) = (   0.1250000   0.3608439   0.0615976), wk =   0.0937500
        k(   35) = (   0.1250000   0.3608439  -0.0821302), wk =   0.0468750
        k(   36) = (   0.1250000   0.5051815   0.0000000), wk =   0.0468750
        k(   37) = (   0.1250000   0.5051815   0.0205325), wk =   0.0937500
        k(   38) = (   0.1250000   0.5051815   0.0410651), wk =   0.0937500
        k(   39) = (   0.1250000   0.5051815   0.0615976), wk =   0.0937500
        k(   40) = (   0.1250000   0.5051815  -0.0821302), wk =   0.0468750
        k(   41) = (   0.2500000   0.4330127   0.0000000), wk =   0.0234375
        k(   42) = (   0.2500000   0.4330127   0.0205325), wk =   0.0468750
        k(   43) = (   0.2500000   0.4330127   0.0410651), wk =   0.0468750
        k(   44) = (   0.2500000   0.4330127   0.0615976), wk =   0.0468750
        k(   45) = (   0.2500000   0.4330127  -0.0821302), wk =   0.0234375
        k(   46) = (   0.2500000   0.5773503   0.0000000), wk =   0.0234375
        k(   47) = (   0.2500000   0.5773503   0.0205325), wk =   0.0468750
        k(   48) = (   0.2500000   0.5773503   0.0410651), wk =   0.0468750
        k(   49) = (   0.2500000   0.5773503   0.0615976), wk =   0.0468750
        k(   50) = (   0.2500000   0.5773503  -0.0821302), wk =   0.0234375

     Dense  grid:    33523 G-vectors     FFT dimensions: (  24,  24, 144)

     Estimated max dynamical RAM per process >      10.68 MB

     Estimated total dynamical RAM >      74.76 MB

     Check: negative core charge=   -0.000003

     Initial potential from superposition of free atoms

     starting charge       7.9999, renormalised to       8.0000

     negative rho (up, down):  9.023E-05 0.000E+00
     Starting wfcs are    8 randomized atomic wfcs

     total cpu time spent up to now is        0.9 secs

     per-process dynamical memory:    13.6 Mb

     Self-consistent Calculation

     iteration #  1     ecut=    60.00 Ry     beta= 0.70
     Davidson diagonalization with overlap
     ethr =  1.00E-02,  avg # of iterations =  7.3

     Threshold (ethr) on eigenvalues was too large:
     Diagonalizing with lowered threshold

     Davidson diagonalization with overlap
     ethr =  8.23E-04,  avg # of iterations =  6.5

     negative rho (up, down):  1.393E-05 0.000E+00

     total cpu time spent up to now is        2.8 secs

     total energy              =     -23.88171156 Ry
     estimated scf accuracy    <       0.19130465 Ry

     iteration #  2     ecut=    60.00 Ry     beta= 0.70
     Davidson diagonalization with overlap
     ethr =  2.39E-03,  avg # of iterations =  2.0

     negative rho (up, down):  4.046E-05 0.000E+00

     total cpu time spent up to now is        3.3 secs

     total energy              =     -23.89149783 Ry
     estimated scf accuracy    <       0.00635355 Ry

     iteration #  3     ecut=    60.00 Ry     beta= 0.70
     Davidson diagonalization with overlap
     c_bands:  1 eigenvalues not converged
     c_bands:  1 eigenvalues not converged
     c_bands:  1 eigenvalues not converged
     c_bands:  1 eigenvalues not converged
     c_bands:  3 eigenvalues not converged
     c_bands:  3 eigenvalues not converged
     c_bands:  3 eigenvalues not converged
     c_bands:  3 eigenvalues not converged
     c_bands:  3 eigenvalues not converged
     c_bands:  3 eigenvalues not converged
     c_bands:  1 eigenvalues not converged
     c_bands:  1 eigenvalues not converged
     c_bands:  3 eigenvalues not converged
     c_bands:  2 eigenvalues not converged
     c_bands:  1 eigenvalues not converged
     c_bands:  1 eigenvalues not converged
     c_bands:  2 eigenvalues not converged
     c_bands:  1 eigenvalues not converged
     c_bands:  1 eigenvalues not converged
     c_bands:  1 eigenvalues not converged
     c_bands:  1 eigenvalues not converged
     c_bands:  2 eigenvalues not converged
     c_bands:  2 eigenvalues not converged
     c_bands:  2 eigenvalues not converged
     c_bands:  1 eigenvalues not converged
     c_bands:  2 eigenvalues not converged
     c_bands:  3 eigenvalues not converged
     ethr =  7.94E-05,  avg # of iterations = 18.5

     negative rho (up, down):  3.830E-05 0.000E+00

     total cpu time spent up to now is        5.9 secs

     total energy              =     -23.91460257 Ry
     estimated scf accuracy    <       0.00810152 Ry

     iteration #  4     ecut=    60.00 Ry     beta= 0.70
     Davidson diagonalization with overlap
     ethr =  7.94E-05,  avg # of iterations =  4.0

     negative rho (up, down):  4.482E-05 0.000E+00

     total cpu time spent up to now is        6.6 secs

     total energy              =     -23.91932842 Ry
     estimated scf accuracy    <       0.01110144 Ry

     iteration #  5     ecut=    60.00 Ry     beta= 0.70
     Davidson diagonalization with overlap
     ethr =  7.94E-05,  avg # of iterations =  2.0

     negative rho (up, down):  6.864E-05 0.000E+00

     total cpu time spent up to now is        7.1 secs

     total energy              =     -23.91149388 Ry
     estimated scf accuracy    <       0.01842440 Ry

     iteration #  6     ecut=    60.00 Ry     beta= 0.70
     Davidson diagonalization with overlap
     ethr =  7.94E-05,  avg # of iterations =  1.7

     negative rho (up, down):  7.675E-05 0.000E+00

     total cpu time spent up to now is        7.7 secs

     total energy              =     -23.91111799 Ry
     estimated scf accuracy    <       0.00634501 Ry

     iteration #  7     ecut=    60.00 Ry     beta= 0.70
     Davidson diagonalization with overlap
     ethr =  7.93E-05,  avg # of iterations =  1.2

     negative rho (up, down):  7.431E-05 0.000E+00

     total cpu time spent up to now is        8.2 secs

     total energy              =     -23.91149762 Ry
     estimated scf accuracy    <       0.00395108 Ry

     iteration #  8     ecut=    60.00 Ry     beta= 0.70
     Davidson diagonalization with overlap
     ethr =  4.94E-05,  avg # of iterations =  1.4

     negative rho (up, down):  7.831E-05 0.000E+00

     total cpu time spent up to now is        8.7 secs

     total energy              =     -23.91127117 Ry
     estimated scf accuracy    <       0.00414382 Ry

     iteration #  9     ecut=    60.00 Ry     beta= 0.70
     Davidson diagonalization with overlap
     ethr =  4.94E-05,  avg # of iterations =  1.0

     negative rho (up, down):  8.760E-05 0.000E+00

     total cpu time spent up to now is        9.2 secs

     total energy              =     -23.91080505 Ry
     estimated scf accuracy    <       0.00335666 Ry

     iteration # 10     ecut=    60.00 Ry     beta= 0.70
     Davidson diagonalization with overlap
     ethr =  4.20E-05,  avg # of iterations =  1.1

     negative rho (up, down):  1.139E-04 0.000E+00

     total cpu time spent up to now is        9.7 secs

     total energy              =     -23.90992139 Ry
     estimated scf accuracy    <       0.00220259 Ry

     iteration # 11     ecut=    60.00 Ry     beta= 0.70
     Davidson diagonalization with overlap
     c_bands:  1 eigenvalues not converged
     ethr =  2.75E-05,  avg # of iterations =  2.6

     negative rho (up, down):  1.150E-04 0.000E+00

     total cpu time spent up to now is       10.3 secs

     total energy              =     -23.91007057 Ry
     estimated scf accuracy    <       0.00033784 Ry

     iteration # 12     ecut=    60.00 Ry     beta= 0.70
     Davidson diagonalization with overlap
     c_bands:  1 eigenvalues not converged
     c_bands:  1 eigenvalues not converged
     c_bands:  1 eigenvalues not converged
     c_bands:  1 eigenvalues not converged
     c_bands:  1 eigenvalues not converged
     c_bands:  1 eigenvalues not converged
     c_bands:  1 eigenvalues not converged
     ethr =  4.22E-06,  avg # of iterations =  9.4

     negative rho (up, down):  1.340E-04 0.000E+00

     total cpu time spent up to now is       11.4 secs

     total energy              =     -23.91013100 Ry
     estimated scf accuracy    <       0.00016426 Ry

     iteration # 13     ecut=    60.00 Ry     beta= 0.70
     Davidson diagonalization with overlap
     c_bands:  1 eigenvalues not converged
     c_bands:  1 eigenvalues not converged
     ethr =  2.05E-06,  avg # of iterations =  7.7

     negative rho (up, down):  1.335E-04 0.000E+00

     total cpu time spent up to now is       12.4 secs

     total energy              =     -23.91024980 Ry
     estimated scf accuracy    <       0.00006404 Ry

     iteration # 14     ecut=    60.00 Ry     beta= 0.70
     Davidson diagonalization with overlap
     ethr =  8.00E-07,  avg # of iterations =  3.1

     negative rho (up, down):  1.252E-04 0.000E+00

     total cpu time spent up to now is       13.0 secs

     total energy              =     -23.91022283 Ry
     estimated scf accuracy    <       0.00009303 Ry

     iteration # 15     ecut=    60.00 Ry     beta= 0.70
     Davidson diagonalization with overlap
     ethr =  8.00E-07,  avg # of iterations =  1.5

     negative rho (up, down):  1.212E-04 0.000E+00

     total cpu time spent up to now is       13.6 secs

     total energy              =     -23.91022937 Ry
     estimated scf accuracy    <       0.00001427 Ry

     iteration # 16     ecut=    60.00 Ry     beta= 0.70
     Davidson diagonalization with overlap
     ethr =  1.78E-07,  avg # of iterations =  4.6

     negative rho (up, down):  1.231E-04 0.000E+00

     total cpu time spent up to now is       14.4 secs

     total energy              =     -23.91027946 Ry
     estimated scf accuracy    <       0.00005901 Ry

     iteration # 17     ecut=    60.00 Ry     beta= 0.70
     Davidson diagonalization with overlap
     ethr =  1.78E-07,  avg # of iterations =  1.9

     negative rho (up, down):  1.247E-04 0.000E+00

     total cpu time spent up to now is       15.0 secs

     total energy              =     -23.91033459 Ry
     estimated scf accuracy    <       0.00010821 Ry

     iteration # 18     ecut=    60.00 Ry     beta= 0.70
     Davidson diagonalization with overlap
     ethr =  1.78E-07,  avg # of iterations =  3.8

     negative rho (up, down):  1.260E-04 0.000E+00

     total cpu time spent up to now is       15.7 secs

     total energy              =     -23.91047611 Ry
     estimated scf accuracy    <       0.00025136 Ry

     iteration # 19     ecut=    60.00 Ry     beta= 0.70
     Davidson diagonalization with overlap
     ethr =  1.78E-07,  avg # of iterations =  5.0

     negative rho (up, down):  1.244E-04 0.000E+00

     total cpu time spent up to now is       16.5 secs

     total energy              =     -23.91036448 Ry
     estimated scf accuracy    <       0.00057544 Ry

     iteration # 20     ecut=    60.00 Ry     beta= 0.70
     Davidson diagonalization with overlap
     ethr =  1.78E-07,  avg # of iterations =  2.1

     negative rho (up, down):  1.283E-04 0.000E+00

     total cpu time spent up to now is       17.1 secs

     total energy              =     -23.91014599 Ry
     estimated scf accuracy    <       0.00035340 Ry

     iteration # 21     ecut=    60.00 Ry     beta= 0.70
     Davidson diagonalization with overlap
     ethr =  1.78E-07,  avg # of iterations =  6.2

     negative rho (up, down):  1.268E-04 0.000E+00

     total cpu time spent up to now is       18.2 secs

     total energy              =     -23.91023289 Ry
     estimated scf accuracy    <       0.00000924 Ry

     iteration # 22     ecut=    60.00 Ry     beta= 0.70
     Davidson diagonalization with overlap
     ethr =  1.16E-07,  avg # of iterations =  1.4

     negative rho (up, down):  1.261E-04 0.000E+00

     total cpu time spent up to now is       18.7 secs

     total energy              =     -23.91023158 Ry
     estimated scf accuracy    <       0.00000243 Ry

     iteration # 23     ecut=    60.00 Ry     beta= 0.70
     Davidson diagonalization with overlap
     ethr =  3.04E-08,  avg # of iterations =  4.0

     negative rho (up, down):  1.248E-04 0.000E+00

     total cpu time spent up to now is       19.4 secs

     total energy              =     -23.91023719 Ry
     estimated scf accuracy    <       0.00000143 Ry

     iteration # 24     ecut=    60.00 Ry     beta= 0.70
     Davidson diagonalization with overlap
     ethr =  1.78E-08,  avg # of iterations =  4.1

     negative rho (up, down):  1.264E-04 0.000E+00

     total cpu time spent up to now is       20.2 secs

     total energy              =     -23.91023145 Ry
     estimated scf accuracy    <       0.00001177 Ry

     iteration # 25     ecut=    60.00 Ry     beta= 0.70
     Davidson diagonalization with overlap
     ethr =  1.78E-08,  avg # of iterations =  4.3

     negative rho (up, down):  1.273E-04 0.000E+00

     total cpu time spent up to now is       20.9 secs

     total energy              =     -23.91023276 Ry
     estimated scf accuracy    <       0.00000013 Ry

     iteration # 26     ecut=    60.00 Ry     beta= 0.70
     Davidson diagonalization with overlap
     ethr =  1.67E-09,  avg # of iterations =  4.2

     negative rho (up, down):  1.274E-04 0.000E+00

     total cpu time spent up to now is       21.7 secs

     total energy              =     -23.91023303 Ry
     estimated scf accuracy    <       0.00000022 Ry

     iteration # 27     ecut=    60.00 Ry     beta= 0.70
     Davidson diagonalization with overlap
     ethr =  1.67E-09,  avg # of iterations =  1.3

     negative rho (up, down):  1.272E-04 0.000E+00

     total cpu time spent up to now is       22.2 secs

     total energy              =     -23.91023294 Ry
     estimated scf accuracy    <       0.00000015 Ry

     iteration # 28     ecut=    60.00 Ry     beta= 0.70
     Davidson diagonalization with overlap
     ethr =  1.67E-09,  avg # of iterations =  1.8

     negative rho (up, down):  1.272E-04 0.000E+00

     total cpu time spent up to now is       22.8 secs

     End of self-consistent calculation

          k = 0.0000 0.0000 0.0000 (  4149 PWs)   bands (ev):

   -21.2456  -9.3481  -4.7867  -4.7867   1.4138   2.2346   2.4905   4.4652

          k = 0.0000 0.0000 0.0205 (  4138 PWs)   bands (ev):

   -21.2456  -9.3481  -4.7867  -4.7867   1.4218   2.1486   2.6011   4.3302

          k = 0.0000 0.0000 0.0411 (  4156 PWs)   bands (ev):

   -21.2456  -9.3482  -4.7867  -4.7867   1.4435   2.0235   2.7976   4.0700

          k = 0.0000 0.0000 0.0616 (  4162 PWs)   bands (ev):

   -21.2456  -9.3482  -4.7867  -4.7867   1.4698   1.9297   2.9989   3.8175

          k = 0.0000 0.0000-0.0821 (  4186 PWs)   bands (ev):

   -21.2456  -9.3482  -4.7867  -4.7867   1.4826   1.8937   3.1069   3.6908

          k = 0.0000 0.1443 0.0000 (  4192 PWs)   bands (ev):

   -20.8772  -8.9078  -6.1647  -5.4895   1.9186   2.7428   3.0002   4.9671

          k = 0.0000 0.1443 0.0205 (  4185 PWs)   bands (ev):

   -20.8772  -8.9078  -6.1647  -5.4895   1.9265   2.6579   3.1096   4.8326

          k = 0.0000 0.1443 0.0411 (  4181 PWs)   bands (ev):

   -20.8772  -8.9078  -6.1647  -5.4895   1.9476   2.5342   3.3050   4.5732

          k = 0.0000 0.1443 0.0616 (  4176 PWs)   bands (ev):

   -20.8772  -8.9078  -6.1647  -5.4895   1.9729   2.4417   3.5051   4.3220

          k = 0.0000 0.1443-0.0821 (  4172 PWs)   bands (ev):

   -20.8772  -8.9078  -6.1647  -5.4895   1.9852   2.4064   3.6125   4.1960

          k = 0.0000 0.2887 0.0000 (  4186 PWs)   bands (ev):

   -19.7814  -9.1657  -7.6170  -6.7977   3.4309   4.2504   4.5285   5.5421

          k = 0.0000 0.2887 0.0205 (  4181 PWs)   bands (ev):

   -19.7814  -9.1657  -7.6170  -6.7977   3.4381   4.1740   4.6278   5.5429

          k = 0.0000 0.2887 0.0411 (  4176 PWs)   bands (ev):

   -19.7814  -9.1657  -7.6170  -6.7977   3.4573   4.0581   4.8099   5.5481

          k = 0.0000 0.2887 0.0616 (  4174 PWs)   bands (ev):

   -19.7814  -9.1657  -7.6170  -6.7977   3.4799   3.9710   4.9908   5.5646

          k = 0.0000 0.2887-0.0821 (  4164 PWs)   bands (ev):

   -19.7814  -9.1657  -7.6169  -6.7976   3.4907   3.9382   5.0802   5.6993

          k = 0.0000 0.4330 0.0000 (  4186 PWs)   bands (ev):

   -17.9955 -12.4405  -7.8046  -5.6339   2.0810   5.7932   6.0253   6.8045

          k = 0.0000 0.4330 0.0205 (  4182 PWs)   bands (ev):

   -17.9955 -12.4405  -7.8046  -5.6339   2.0810   5.7946   6.0304   6.7315

          k = 0.0000 0.4330 0.0411 (  4188 PWs)   bands (ev):

   -17.9955 -12.4405  -7.8046  -5.6339   2.0810   5.7980   6.0440   6.6200

          k = 0.0000 0.4330 0.0616 (  4198 PWs)   bands (ev):

   -17.9955 -12.4405  -7.8046  -5.6339   2.0810   5.8013   6.0605   6.5374

          k = 0.0000 0.4330-0.0821 (  4196 PWs)   bands (ev):

   -17.9955 -12.4405  -7.8046  -5.6339   2.0810   5.8026   6.0684   6.5065

          k = 0.0000-0.5774 0.0000 (  4184 PWs)   bands (ev):

   -16.0000 -14.9761  -8.1668  -4.0786  -0.0341   5.6871   9.3375   9.4725

          k = 0.0000-0.5774 0.0205 (  4180 PWs)   bands (ev):

   -16.0000 -14.9761  -8.1668  -4.0786  -0.0341   5.6872   9.3413   9.4775

          k = 0.0000-0.5774 0.0411 (  4204 PWs)   bands (ev):

   -16.0000 -14.9761  -8.1668  -4.0786  -0.0341   5.6871   9.3506   9.4903

          k = 0.0000-0.5774 0.0616 (  4214 PWs)   bands (ev):

   -16.0000 -14.9761  -8.1668  -4.0786  -0.0341   5.6871   9.3607   9.5046

          k = 0.0000-0.5774-0.0821 (  4212 PWs)   bands (ev):

   -16.0000 -14.9761  -8.1668  -4.0787  -0.0341   5.6871   9.3651   9.5113

          k = 0.1250 0.2165 0.0000 (  4163 PWs)   bands (ev):

   -20.1451  -8.0406  -7.9635  -6.8925   2.9283   3.7561   4.0203   5.9665

          k = 0.1250 0.2165 0.0205 (  4172 PWs)   bands (ev):

   -20.1451  -8.0406  -7.9635  -6.8925   2.9357   3.6745   4.1263   5.8340

          k = 0.1250 0.2165 0.0411 (  4175 PWs)   bands (ev):

   -20.1451  -8.0406  -7.9635  -6.8925   2.9557   3.5542   4.3182   5.5785

          k = 0.1250 0.2165 0.0616 (  4174 PWs)   bands (ev):

   -20.1451  -8.0406  -7.9635  -6.8925   2.9793   3.4645   4.5149   5.3319

          k = 0.1250 0.2165-0.0821 (  4170 PWs)   bands (ev):

   -20.1451  -8.0406  -7.9635  -6.8925   2.9906   3.4305   4.6196   5.2083

          k = 0.1250 0.3608 0.0000 (  4180 PWs)   bands (ev):

   -18.7033 -10.7486  -8.4091  -6.3779   3.4922   4.9397   5.7748   6.0577

          k = 0.1250 0.3608 0.0205 (  4175 PWs)   bands (ev):

   -18.7033 -10.7486  -8.4091  -6.3779   3.4922   4.9463   5.7017   6.1549

          k = 0.1250 0.3608 0.0411 (  4176 PWs)   bands (ev):

   -18.7033 -10.7486  -8.4091  -6.3779   3.4922   4.9636   5.5898   6.3363

          k = 0.1250 0.3608 0.0616 (  4173 PWs)   bands (ev):

   -18.7033 -10.7486  -8.4091  -6.3779   3.4922   4.9837   5.5067   6.5226

          k = 0.1250 0.3608-0.0821 (  4172 PWs)   bands (ev):

   -18.7033 -10.7486  -8.4091  -6.3779   3.4922   4.9931   5.4757   6.6200

          k = 0.1250 0.5052 0.0000 (  4183 PWs)   bands (ev):

   -16.6364 -13.7464  -9.1758  -4.2832   0.5221   7.2554   7.9392   8.7101

          k = 0.1250 0.5052 0.0205 (  4185 PWs)   bands (ev):

   -16.6364 -13.7464  -9.1758  -4.2832   0.5221   7.2555   7.9444   8.6659

          k = 0.1250 0.5052 0.0411 (  4182 PWs)   bands (ev):

   -16.6364 -13.7464  -9.1758  -4.2832   0.5221   7.2555   7.9577   8.5844

          k = 0.1250 0.5052 0.0616 (  4185 PWs)   bands (ev):

   -16.6364 -13.7464  -9.1758  -4.2832   0.5221   7.2555   7.9726   8.5192

          k = 0.1250 0.5052-0.0821 (  4184 PWs)   bands (ev):

   -16.6364 -13.7464  -9.1758  -4.2832   0.5221   7.2555   7.9793   8.4947

          k = 0.2500 0.4330 0.0000 (  4156 PWs)   bands (ev):

   -16.9641 -12.2608 -10.7019  -4.4577   1.1070   7.4254   8.1054   8.5978

          k = 0.2500 0.4330 0.0205 (  4145 PWs)   bands (ev):

   -16.9641 -12.2608 -10.7018  -4.4577   1.1070   7.4307   8.0734   8.6424

          k = 0.2500 0.4330 0.0411 (  4150 PWs)   bands (ev):

   -16.9641 -12.2608 -10.7019  -4.4577   1.1070   7.4442   8.0080   8.7419

          k = 0.2500 0.4330 0.0616 (  4165 PWs)   bands (ev):

   -16.9641 -12.2608 -10.7019  -4.4577   1.1070   7.4594   7.9518   8.8392

          k = 0.2500 0.4330-0.0821 (  4172 PWs)   bands (ev):

   -16.9641 -12.2608 -10.7019  -4.4577   1.1070   7.4663   7.9299   8.8809

          k = 0.2500 0.5774 0.0000 (  4160 PWs)   bands (ev):

   -15.0545 -14.1848 -11.4842  -2.7384  -0.7641   9.2020  10.3968  10.5500

          k = 0.2500 0.5774 0.0205 (  4165 PWs)   bands (ev):

   -15.0545 -14.1848 -11.4842  -2.7384  -0.7641   9.2020  10.3967  10.5514

          k = 0.2500 0.5774 0.0411 (  4163 PWs)   bands (ev):

   -15.0545 -14.1848 -11.4842  -2.7384  -0.7641   9.2018  10.3969  10.5553

          k = 0.2500 0.5774 0.0616 (  4153 PWs)   bands (ev):

   -15.0545 -14.1848 -11.4842  -2.7384  -0.7641   9.2017  10.3969  10.5593

          k = 0.2500 0.5774-0.0821 (  4154 PWs)   bands (ev):

   -15.0545 -14.1848 -11.4842  -2.7384  -0.7641   9.2016  10.3973  10.5609

     the Fermi energy is    -1.5665 ev

!    total energy              =     -23.91023296 Ry
     estimated scf accuracy    <          4.3E-09 Ry
     smearing contrib. (-TS)   =       0.00000000 Ry
     internal energy E=F+TS    =     -23.91023296 Ry

     The total energy is F=E-TS. E is the sum of the following terms:
     one-electron contribution =    -157.39867785 Ry
     hartree contribution      =      80.16241292 Ry
     xc contribution           =      -8.30361515 Ry
     ewald contribution        =      61.62964711 Ry

     convergence has been achieved in  28 iterations

     negative rho (up, down):  1.272E-04 0.000E+00

     Forces acting on atoms (cartesian axes, Ry/au):

     atom    1 type  1   force =     0.00000000    0.00000000    0.00000000
     atom    2 type  1   force =     0.00000000    0.00000000    0.00000000

     Total force =     0.000000     Total SCF correction =     0.000000


     Computing stress (Cartesian axis) and pressure


     negative rho (up, down):  1.272E-04 0.000E+00
          total   stress  (Ry/bohr**3)                   (kbar)     P=       -0.16
  -0.00000096  -0.00000000   0.00000000           -0.14       -0.00        0.00
  -0.00000000  -0.00000096   0.00000000           -0.00       -0.14        0.00
  -0.00000000   0.00000000  -0.00000137           -0.00        0.00       -0.20


     Writing all to output data dir /home/rfa/Skripsi/DFT/dft-graphene/tmp/gr-1L.save/ :
     XML data file, charge density, pseudopotentials, collected wavefunctions

     init_run     :      0.70s CPU      0.88s WALL (       1 calls)
     electrons    :     39.05s CPU     21.84s WALL (       1 calls)
     forces       :      0.08s CPU      0.04s WALL (       1 calls)
     stress       :      0.30s CPU      0.18s WALL (       1 calls)

     Called by init_run:
     wfcinit      :      0.33s CPU      0.18s WALL (       1 calls)
     potinit      :      0.01s CPU      0.01s WALL (       1 calls)
     hinit0       :      0.34s CPU      0.65s WALL (       1 calls)

     Called by electrons:
     c_bands      :     33.38s CPU     18.51s WALL (      29 calls)
     sum_band     :      5.01s CPU      2.77s WALL (      29 calls)
     v_of_rho     :      0.21s CPU      0.21s WALL (      29 calls)
     newd         :      0.21s CPU      0.19s WALL (      29 calls)
     mix_rho      :      0.21s CPU      0.11s WALL (      29 calls)

     Called by c_bands:
     init_us_2    :      0.87s CPU      0.45s WALL (    3050 calls)
     cegterg      :     31.77s CPU     17.51s WALL (    1450 calls)

     Called by *egterg:
     cdiaghg      :      1.72s CPU      0.94s WALL (    7192 calls)
     h_psi        :     25.98s CPU     14.38s WALL (    7292 calls)
     s_psi        :      0.35s CPU      0.19s WALL (    7292 calls)
     g_psi        :      0.25s CPU      0.13s WALL (    5792 calls)

     Called by h_psi:
     h_psi:calbec :      1.55s CPU      0.84s WALL (    7292 calls)
     vloc_psi     :     23.49s CPU     12.98s WALL (    7292 calls)
     add_vuspsi   :      0.57s CPU      0.33s WALL (    7292 calls)

     General routines
     calbec       :      1.82s CPU      0.98s WALL (    9592 calls)
     fft          :      0.42s CPU      0.73s WALL (     345 calls)
     ffts         :      0.02s CPU      0.01s WALL (      29 calls)
     fftw         :     23.51s CPU     13.05s WALL (   83292 calls)

     Parallel routines

     PWSCF        :     40.26s CPU     23.45s WALL


   This run was terminated on:   6: 2:46  22Apr2025            

=------------------------------------------------------------------------------=
   JOB DONE.
=------------------------------------------------------------------------------=
