
     Program PWSCF v.7.4.1 starts on 22Apr2025 at  6: 2:47 

     This program is part of the open-source Quantum ESPRESSO suite
     for quantum simulation of materials; please cite
         "P. Giannozzi et al., J. Phys.:Condens. Matter 21 395502 (2009);
         "P. Giannozzi et al., J. Phys.:Condens. Matter 29 465901 (2017);
         "P. Giannozzi et al., J. Chem. Phys. 152 154105 (2020);
          URL http://www.quantum-espresso.org", 
     in publications or presentations arising from this work. More details at
     http://www.quantum-espresso.org/quote

     Parallel version (MPI), running on     7 processors

     MPI processes distributed on     1 nodes
     12144 MiB available memory on the printing compute node when the environment starts

     Waiting for input...
     Reading input from standard input

     Current dimensions of program PWSCF are:
     Max number of different atomic species (ntypx) = 10
     Max number of k-points (npk) =  40000
     Max angular momentum in pseudopotentials (lmaxx) =  4

     R & G space division:  proc/nbgrp/npool/nimage =       7
     Subspace diagonalization in iterative solution of the eigenvalue problem:
     a serial algorithm will be used


     Parallelization info
     --------------------
     sticks:   dense  smooth     PW     G-vecs:    dense   smooth      PW
     Min          51      51     17                 4783     4783     919
     Max          52      52     18                 4800     4800     934
     Sum         361     361    121                33523    33523    6489

     Using Slab Decomposition



     bravais-lattice index     =            4
     lattice parameter (alat)  =       4.6561  a.u.
     unit-cell volume          =     532.1899 (a.u.)^3
     number of atoms/cell      =            2
     number of atomic types    =            1
     number of electrons       =         8.00
     number of Kohn-Sham states=            8
     kinetic-energy cutoff     =      60.0000  Ry
     charge density cutoff     =     240.0000  Ry
     scf convergence threshold =      1.0E-08
     mixing beta               =       0.7000
     number of iterations used =            8  plain     mixing
     Exchange-correlation= PBE
                           (   1   4   3   4   0   0   0)

     celldm(1)=   4.656107  celldm(2)=   0.000000  celldm(3)=   6.087896
     celldm(4)=   0.000000  celldm(5)=   0.000000  celldm(6)=   0.000000

     crystal axes: (cart. coord. in units of alat)
               a(1) = (   1.000000   0.000000   0.000000 )  
               a(2) = (  -0.500000   0.866025   0.000000 )  
               a(3) = (   0.000000   0.000000   6.087896 )  

     reciprocal axes: (cart. coord. in units 2 pi/alat)
               b(1) = (  1.000000  0.577350 -0.000000 )  
               b(2) = (  0.000000  1.154701  0.000000 )  
               b(3) = (  0.000000 -0.000000  0.164260 )  


     PseudoPot. # 1 for C  read from file:
     /home/rfa/Skripsi/DFT/dft-graphene/pseudo/C.pbe-n-rrkjus_psl.0.1.UPF
     MD5 check sum: 96a6a315177d77e6c95bf6fd3870f9e3
     Pseudo is Ultrasoft + core correction, Zval =  4.0
     Generated using &quot;atomic&quot; code by A. Dal Corso  v.6.3MaX
     Using radial grid of 1073 points,  4 beta functions with: 
                l(1) =   0
                l(2) =   0
                l(3) =   1
                l(4) =   1
     Q(r) pseudized with 0 coefficients 


     atomic species   valence    mass     pseudopotential
     C                 4.00    12.01070     C ( 1.00)

     24 Sym. Ops., with inversion, found



   Cartesian axes

     site n.     atom                  positions (alat units)
         1        C      tau(   1) = (   0.0000000   0.5773503   3.0439478  )
         2        C      tau(   2) = (   0.5000000   0.2886751   3.0439478  )

     number of k points=    80  Marzari-Vanderbilt smearing, width (Ry)=  0.0200
                       cart. coord. in units 2pi/alat
        k(    1) = (   0.0625000   0.1082532   0.0102663), wk =   0.0156250
        k(    2) = (   0.0625000   0.1082532   0.0307988), wk =   0.0156250
        k(    3) = (   0.0625000   0.1082532   0.0513314), wk =   0.0156250
        k(    4) = (   0.0625000   0.1082532   0.0718639), wk =   0.0156250
        k(    5) = (   0.0625000   0.2525907   0.0102663), wk =   0.0312500
        k(    6) = (   0.0625000   0.2525907   0.0307988), wk =   0.0312500
        k(    7) = (   0.0625000   0.2525907   0.0513314), wk =   0.0312500
        k(    8) = (   0.0625000   0.2525907   0.0718639), wk =   0.0312500
        k(    9) = (   0.0625000   0.3969283   0.0102663), wk =   0.0312500
        k(   10) = (   0.0625000   0.3969283   0.0307988), wk =   0.0312500
        k(   11) = (   0.0625000   0.3969283   0.0513314), wk =   0.0312500
        k(   12) = (   0.0625000   0.3969283   0.0718639), wk =   0.0312500
        k(   13) = (   0.0625000   0.5412659   0.0102663), wk =   0.0312500
        k(   14) = (   0.0625000   0.5412659   0.0307988), wk =   0.0312500
        k(   15) = (   0.0625000   0.5412659   0.0513314), wk =   0.0312500
        k(   16) = (   0.0625000   0.5412659   0.0718639), wk =   0.0312500
        k(   17) = (   0.0625000  -0.4690971   0.0102663), wk =   0.0312500
        k(   18) = (   0.0625000  -0.4690971   0.0307988), wk =   0.0312500
        k(   19) = (   0.0625000  -0.4690971   0.0513314), wk =   0.0312500
        k(   20) = (   0.0625000  -0.4690971   0.0718639), wk =   0.0312500
        k(   21) = (   0.0625000  -0.3247595   0.0102663), wk =   0.0312500
        k(   22) = (   0.0625000  -0.3247595   0.0307988), wk =   0.0312500
        k(   23) = (   0.0625000  -0.3247595   0.0513314), wk =   0.0312500
        k(   24) = (   0.0625000  -0.3247595   0.0718639), wk =   0.0312500
        k(   25) = (   0.0625000  -0.1804220   0.0102663), wk =   0.0312500
        k(   26) = (   0.0625000  -0.1804220   0.0307988), wk =   0.0312500
        k(   27) = (   0.0625000  -0.1804220   0.0513314), wk =   0.0312500
        k(   28) = (   0.0625000  -0.1804220   0.0718639), wk =   0.0312500
        k(   29) = (   0.0625000  -0.0360844   0.0102663), wk =   0.0156250
        k(   30) = (   0.0625000  -0.0360844   0.0307988), wk =   0.0156250
        k(   31) = (   0.0625000  -0.0360844   0.0513314), wk =   0.0156250
        k(   32) = (   0.0625000  -0.0360844   0.0718639), wk =   0.0156250
        k(   33) = (   0.1875000   0.3247595   0.0102663), wk =   0.0156250
        k(   34) = (   0.1875000   0.3247595   0.0307988), wk =   0.0156250
        k(   35) = (   0.1875000   0.3247595   0.0513314), wk =   0.0156250
        k(   36) = (   0.1875000   0.3247595   0.0718639), wk =   0.0156250
        k(   37) = (   0.1875000   0.4690971   0.0102663), wk =   0.0312500
        k(   38) = (   0.1875000   0.4690971   0.0307988), wk =   0.0312500
        k(   39) = (   0.1875000   0.4690971   0.0513314), wk =   0.0312500
        k(   40) = (   0.1875000   0.4690971   0.0718639), wk =   0.0312500
        k(   41) = (   0.1875000   0.6134347   0.0102663), wk =   0.0312500
        k(   42) = (   0.1875000   0.6134347   0.0307988), wk =   0.0312500
        k(   43) = (   0.1875000   0.6134347   0.0513314), wk =   0.0312500
        k(   44) = (   0.1875000   0.6134347   0.0718639), wk =   0.0312500
        k(   45) = (   0.1875000  -0.3969283   0.0102663), wk =   0.0312500
        k(   46) = (   0.1875000  -0.3969283   0.0307988), wk =   0.0312500
        k(   47) = (   0.1875000  -0.3969283   0.0513314), wk =   0.0312500
        k(   48) = (   0.1875000  -0.3969283   0.0718639), wk =   0.0312500
        k(   49) = (   0.1875000  -0.2525907   0.0102663), wk =   0.0312500
        k(   50) = (   0.1875000  -0.2525907   0.0307988), wk =   0.0312500
        k(   51) = (   0.1875000  -0.2525907   0.0513314), wk =   0.0312500
        k(   52) = (   0.1875000  -0.2525907   0.0718639), wk =   0.0312500
        k(   53) = (   0.1875000  -0.1082532   0.0102663), wk =   0.0156250
        k(   54) = (   0.1875000  -0.1082532   0.0307988), wk =   0.0156250
        k(   55) = (   0.1875000  -0.1082532   0.0513314), wk =   0.0156250
        k(   56) = (   0.1875000  -0.1082532   0.0718639), wk =   0.0156250
        k(   57) = (   0.3125000   0.5412659   0.0102663), wk =   0.0156250
        k(   58) = (   0.3125000   0.5412659   0.0307988), wk =   0.0156250
        k(   59) = (   0.3125000   0.5412659   0.0513314), wk =   0.0156250
        k(   60) = (   0.3125000   0.5412659   0.0718639), wk =   0.0156250
        k(   61) = (   0.3125000   0.6856034   0.0102663), wk =   0.0312500
        k(   62) = (   0.3125000   0.6856034   0.0307988), wk =   0.0312500
        k(   63) = (   0.3125000   0.6856034   0.0513314), wk =   0.0312500
        k(   64) = (   0.3125000   0.6856034   0.0718639), wk =   0.0312500
        k(   65) = (   0.3125000  -0.3247595   0.0102663), wk =   0.0312500
        k(   66) = (   0.3125000  -0.3247595   0.0307988), wk =   0.0312500
        k(   67) = (   0.3125000  -0.3247595   0.0513314), wk =   0.0312500
        k(   68) = (   0.3125000  -0.3247595   0.0718639), wk =   0.0312500
        k(   69) = (   0.3125000  -0.1804220   0.0102663), wk =   0.0156250
        k(   70) = (   0.3125000  -0.1804220   0.0307988), wk =   0.0156250
        k(   71) = (   0.3125000  -0.1804220   0.0513314), wk =   0.0156250
        k(   72) = (   0.3125000  -0.1804220   0.0718639), wk =   0.0156250
        k(   73) = (   0.4375000   0.7577722   0.0102663), wk =   0.0156250
        k(   74) = (   0.4375000   0.7577722   0.0307988), wk =   0.0156250
        k(   75) = (   0.4375000   0.7577722   0.0513314), wk =   0.0156250
        k(   76) = (   0.4375000   0.7577722   0.0718639), wk =   0.0156250
        k(   77) = (   0.4375000  -0.2525907   0.0102663), wk =   0.0156250
        k(   78) = (   0.4375000  -0.2525907   0.0307988), wk =   0.0156250
        k(   79) = (   0.4375000  -0.2525907   0.0513314), wk =   0.0156250
        k(   80) = (   0.4375000  -0.2525907   0.0718639), wk =   0.0156250

     Dense  grid:    33523 G-vectors     FFT dimensions: (  24,  24, 144)

     Estimated max dynamical RAM per process >      12.86 MB

     Estimated total dynamical RAM >      90.04 MB

     Check: negative core charge=   -0.000003

     Initial potential from superposition of free atoms

     starting charge       7.9999, renormalised to       8.0000

     negative rho (up, down):  9.023E-05 0.000E+00
     Starting wfcs are    8 randomized atomic wfcs

     total cpu time spent up to now is        1.1 secs

     per-process dynamical memory:    16.0 Mb

     Self-consistent Calculation

     iteration #  1     ecut=    60.00 Ry     beta= 0.70
     Davidson diagonalization with overlap
     ethr =  1.00E-02,  avg # of iterations =  7.4

     Threshold (ethr) on eigenvalues was too large:
     Diagonalizing with lowered threshold

     Davidson diagonalization with overlap
     ethr =  8.17E-04,  avg # of iterations =  7.2

     negative rho (up, down):  1.839E-05 0.000E+00

     total cpu time spent up to now is        4.2 secs

     WARNING: integrated charge=     8.00026556, expected=     8.00000000

     total energy              =     -23.88181416 Ry
     estimated scf accuracy    <       0.19316157 Ry

     iteration #  2     ecut=    60.00 Ry     beta= 0.70
     Davidson diagonalization with overlap
     ethr =  2.41E-03,  avg # of iterations =  2.3

     negative rho (up, down):  4.695E-05 0.000E+00

     total cpu time spent up to now is        5.1 secs

     WARNING: integrated charge=     8.00025945, expected=     8.00000000

     total energy              =     -23.89209737 Ry
     estimated scf accuracy    <       0.00607262 Ry

     iteration #  3     ecut=    60.00 Ry     beta= 0.70
     Davidson diagonalization with overlap
     c_bands:  3 eigenvalues not converged
     c_bands:  2 eigenvalues not converged
     c_bands:  4 eigenvalues not converged
     c_bands:  2 eigenvalues not converged
     c_bands:  3 eigenvalues not converged
     c_bands:  1 eigenvalues not converged
     c_bands:  1 eigenvalues not converged
     c_bands:  4 eigenvalues not converged
     c_bands:  2 eigenvalues not converged
     c_bands:  1 eigenvalues not converged
     c_bands:  1 eigenvalues not converged
     c_bands:  1 eigenvalues not converged
     c_bands:  1 eigenvalues not converged
     c_bands:  2 eigenvalues not converged
     c_bands:  1 eigenvalues not converged
     c_bands:  2 eigenvalues not converged
     c_bands:  2 eigenvalues not converged
     c_bands:  2 eigenvalues not converged
     c_bands:  2 eigenvalues not converged
     c_bands:  3 eigenvalues not converged
     c_bands:  2 eigenvalues not converged
     c_bands:  1 eigenvalues not converged
     c_bands:  2 eigenvalues not converged
     c_bands:  2 eigenvalues not converged
     c_bands:  1 eigenvalues not converged
     c_bands:  1 eigenvalues not converged
     c_bands:  1 eigenvalues not converged
     c_bands:  2 eigenvalues not converged
     c_bands:  1 eigenvalues not converged
     c_bands:  2 eigenvalues not converged
     c_bands:  1 eigenvalues not converged
     c_bands:  1 eigenvalues not converged
     c_bands:  2 eigenvalues not converged
     c_bands:  3 eigenvalues not converged
     c_bands:  1 eigenvalues not converged
     c_bands:  1 eigenvalues not converged
     c_bands:  1 eigenvalues not converged
     c_bands:  1 eigenvalues not converged
     c_bands:  1 eigenvalues not converged
     c_bands:  4 eigenvalues not converged
     c_bands:  1 eigenvalues not converged
     c_bands:  3 eigenvalues not converged
     c_bands:  1 eigenvalues not converged
     c_bands:  1 eigenvalues not converged
     c_bands:  1 eigenvalues not converged
     c_bands:  2 eigenvalues not converged
     c_bands:  2 eigenvalues not converged
     c_bands:  1 eigenvalues not converged
     c_bands:  2 eigenvalues not converged
     c_bands:  1 eigenvalues not converged
     c_bands:  1 eigenvalues not converged
     c_bands:  1 eigenvalues not converged
     c_bands:  1 eigenvalues not converged
     ethr =  7.59E-05,  avg # of iterations = 18.8

     negative rho (up, down):  4.471E-05 0.000E+00

     total cpu time spent up to now is        9.3 secs

     WARNING: integrated charge=     8.00026107, expected=     8.00000000

     total energy              =     -23.91490019 Ry
     estimated scf accuracy    <       0.00814198 Ry

     iteration #  4     ecut=    60.00 Ry     beta= 0.70
     Davidson diagonalization with overlap
     ethr =  7.59E-05,  avg # of iterations =  4.4

     negative rho (up, down):  4.948E-05 0.000E+00

     total cpu time spent up to now is       10.4 secs

     WARNING: integrated charge=     8.00020311, expected=     8.00000000

     total energy              =     -23.91858460 Ry
     estimated scf accuracy    <       0.01116506 Ry

     iteration #  5     ecut=    60.00 Ry     beta= 0.70
     Davidson diagonalization with overlap
     ethr =  7.59E-05,  avg # of iterations =  1.8

     negative rho (up, down):  7.062E-05 0.000E+00

     total cpu time spent up to now is       11.2 secs

     WARNING: integrated charge=     8.00013034, expected=     8.00000000

     total energy              =     -23.91070085 Ry
     estimated scf accuracy    <       0.01665210 Ry

     iteration #  6     ecut=    60.00 Ry     beta= 0.70
     Davidson diagonalization with overlap
     ethr =  7.59E-05,  avg # of iterations =  2.4

     negative rho (up, down):  7.514E-05 0.000E+00

     total cpu time spent up to now is       12.2 secs

     WARNING: integrated charge=     8.00014570, expected=     8.00000000

     total energy              =     -23.91090451 Ry
     estimated scf accuracy    <       0.00443456 Ry

     iteration #  7     ecut=    60.00 Ry     beta= 0.70
     Davidson diagonalization with overlap
     ethr =  5.54E-05,  avg # of iterations =  1.3

     negative rho (up, down):  7.319E-05 0.000E+00

     total cpu time spent up to now is       13.0 secs

     WARNING: integrated charge=     8.00014302, expected=     8.00000000

     total energy              =     -23.91123542 Ry
     estimated scf accuracy    <       0.00323354 Ry

     iteration #  8     ecut=    60.00 Ry     beta= 0.70
     Davidson diagonalization with overlap
     ethr =  4.04E-05,  avg # of iterations =  1.7

     negative rho (up, down):  7.322E-05 0.000E+00

     total cpu time spent up to now is       13.9 secs

     WARNING: integrated charge=     8.00014275, expected=     8.00000000

     total energy              =     -23.91129302 Ry
     estimated scf accuracy    <       0.00324124 Ry

     iteration #  9     ecut=    60.00 Ry     beta= 0.70
     Davidson diagonalization with overlap
     ethr =  4.04E-05,  avg # of iterations =  1.1

     negative rho (up, down):  7.288E-05 0.000E+00

     total cpu time spent up to now is       14.7 secs

     WARNING: integrated charge=     8.00014193, expected=     8.00000000

     total energy              =     -23.91137406 Ry
     estimated scf accuracy    <       0.00306936 Ry

     iteration # 10     ecut=    60.00 Ry     beta= 0.70
     Davidson diagonalization with overlap
     ethr =  3.84E-05,  avg # of iterations =  1.1

     negative rho (up, down):  6.661E-05 0.000E+00

     total cpu time spent up to now is       15.5 secs

     WARNING: integrated charge=     8.00012919, expected=     8.00000000

     total energy              =     -23.91218981 Ry
     estimated scf accuracy    <       0.00304507 Ry

     iteration # 11     ecut=    60.00 Ry     beta= 0.70
     Davidson diagonalization with overlap
     ethr =  3.81E-05,  avg # of iterations =  1.3

     negative rho (up, down):  1.365E-04 0.000E+00

     total cpu time spent up to now is       16.3 secs

     WARNING: integrated charge=     8.00030100, expected=     8.00000000

     total energy              =     -23.90953409 Ry
     estimated scf accuracy    <       0.00437667 Ry

     iteration # 12     ecut=    60.00 Ry     beta= 0.70
     Davidson diagonalization with overlap
     ethr =  3.81E-05,  avg # of iterations =  2.6

     negative rho (up, down):  1.249E-04 0.000E+00

     total cpu time spent up to now is       17.3 secs

     WARNING: integrated charge=     8.00027476, expected=     8.00000000

     total energy              =     -23.91008932 Ry
     estimated scf accuracy    <       0.00015427 Ry

     iteration # 13     ecut=    60.00 Ry     beta= 0.70
     Davidson diagonalization with overlap
     c_bands:  2 eigenvalues not converged
     c_bands:  1 eigenvalues not converged
     c_bands:  1 eigenvalues not converged
     c_bands:  1 eigenvalues not converged
     c_bands:  1 eigenvalues not converged
     c_bands:  1 eigenvalues not converged
     c_bands:  1 eigenvalues not converged
     c_bands:  1 eigenvalues not converged
     c_bands:  1 eigenvalues not converged
     c_bands:  2 eigenvalues not converged
     c_bands:  1 eigenvalues not converged
     c_bands:  2 eigenvalues not converged
     c_bands:  1 eigenvalues not converged
     c_bands:  1 eigenvalues not converged
     c_bands:  1 eigenvalues not converged
     c_bands:  1 eigenvalues not converged
     ethr =  1.93E-06,  avg # of iterations = 13.0

     negative rho (up, down):  1.259E-04 0.000E+00

     total cpu time spent up to now is       20.1 secs

     WARNING: integrated charge=     8.00027489, expected=     8.00000000

     total energy              =     -23.91051109 Ry
     estimated scf accuracy    <       0.00017567 Ry

     iteration # 14     ecut=    60.00 Ry     beta= 0.70
     Davidson diagonalization with overlap
     c_bands:  1 eigenvalues not converged
     ethr =  1.93E-06,  avg # of iterations =  3.0

     negative rho (up, down):  1.286E-04 0.000E+00

     total cpu time spent up to now is       21.1 secs

     WARNING: integrated charge=     8.00027534, expected=     8.00000000

     total energy              =     -23.91052710 Ry
     estimated scf accuracy    <       0.00019380 Ry

     iteration # 15     ecut=    60.00 Ry     beta= 0.70
     Davidson diagonalization with overlap
     ethr =  1.93E-06,  avg # of iterations =  1.4

     negative rho (up, down):  1.262E-04 0.000E+00

     total cpu time spent up to now is       21.9 secs

     WARNING: integrated charge=     8.00027594, expected=     8.00000000

     total energy              =     -23.91048887 Ry
     estimated scf accuracy    <       0.00020223 Ry

     iteration # 16     ecut=    60.00 Ry     beta= 0.70
     Davidson diagonalization with overlap
     ethr =  1.93E-06,  avg # of iterations =  1.3

     negative rho (up, down):  1.339E-04 0.000E+00

     total cpu time spent up to now is       22.7 secs

     WARNING: integrated charge=     8.00027688, expected=     8.00000000

     total energy              =     -23.91055459 Ry
     estimated scf accuracy    <       0.00014002 Ry

     iteration # 17     ecut=    60.00 Ry     beta= 0.70
     Davidson diagonalization with overlap
     ethr =  1.75E-06,  avg # of iterations =  1.5

     negative rho (up, down):  1.425E-04 0.000E+00

     total cpu time spent up to now is       23.6 secs

     WARNING: integrated charge=     8.00028041, expected=     8.00000000

     total energy              =     -23.91074575 Ry
     estimated scf accuracy    <       0.00025035 Ry

     iteration # 18     ecut=    60.00 Ry     beta= 0.70
     Davidson diagonalization with overlap
     c_bands:  1 eigenvalues not converged
     ethr =  1.75E-06,  avg # of iterations =  2.5

     negative rho (up, down):  1.302E-04 0.000E+00

     total cpu time spent up to now is       24.5 secs

     WARNING: integrated charge=     8.00027705, expected=     8.00000000

     total energy              =     -23.91060485 Ry
     estimated scf accuracy    <       0.00060764 Ry

     iteration # 19     ecut=    60.00 Ry     beta= 0.70
     Davidson diagonalization with overlap
     ethr =  1.75E-06,  avg # of iterations =  1.3

     negative rho (up, down):  1.285E-04 0.000E+00

     total cpu time spent up to now is       25.4 secs

     WARNING: integrated charge=     8.00027480, expected=     8.00000000

     total energy              =     -23.91057115 Ry
     estimated scf accuracy    <       0.00037728 Ry

     iteration # 20     ecut=    60.00 Ry     beta= 0.70
     Davidson diagonalization with overlap
     ethr =  1.75E-06,  avg # of iterations =  1.1

     negative rho (up, down):  1.340E-04 0.000E+00

     total cpu time spent up to now is       26.2 secs

     WARNING: integrated charge=     8.00028133, expected=     8.00000000

     total energy              =     -23.91047579 Ry
     estimated scf accuracy    <       0.00031378 Ry

     iteration # 21     ecut=    60.00 Ry     beta= 0.70
     Davidson diagonalization with overlap
     ethr =  1.75E-06,  avg # of iterations =  1.1

     negative rho (up, down):  1.299E-04 0.000E+00

     total cpu time spent up to now is       27.0 secs

     WARNING: integrated charge=     8.00027768, expected=     8.00000000

     total energy              =     -23.91038440 Ry
     estimated scf accuracy    <       0.00014446 Ry

     iteration # 22     ecut=    60.00 Ry     beta= 0.70
     Davidson diagonalization with overlap
     c_bands:  1 eigenvalues not converged
     c_bands:  1 eigenvalues not converged
     c_bands:  1 eigenvalues not converged
     ethr =  1.75E-06,  avg # of iterations =  5.1

     negative rho (up, down):  1.267E-04 0.000E+00

     total cpu time spent up to now is       28.2 secs

     WARNING: integrated charge=     8.00027241, expected=     8.00000000

     total energy              =     -23.91041171 Ry
     estimated scf accuracy    <       0.00007818 Ry

     iteration # 23     ecut=    60.00 Ry     beta= 0.70
     Davidson diagonalization with overlap
     ethr =  9.77E-07,  avg # of iterations =  1.4

     negative rho (up, down):  1.279E-04 0.000E+00

     total cpu time spent up to now is       29.0 secs

     WARNING: integrated charge=     8.00027227, expected=     8.00000000

     total energy              =     -23.91042018 Ry
     estimated scf accuracy    <       0.00000036 Ry

     iteration # 24     ecut=    60.00 Ry     beta= 0.70
     Davidson diagonalization with overlap
     ethr =  4.53E-09,  avg # of iterations =  6.0

     negative rho (up, down):  1.275E-04 0.000E+00

     total cpu time spent up to now is       30.6 secs

     WARNING: integrated charge=     8.00027199, expected=     8.00000000

     total energy              =     -23.91043094 Ry
     estimated scf accuracy    <       0.00000103 Ry

     iteration # 25     ecut=    60.00 Ry     beta= 0.70
     Davidson diagonalization with overlap
     ethr =  4.53E-09,  avg # of iterations =  1.2

     negative rho (up, down):  1.272E-04 0.000E+00

     total cpu time spent up to now is       31.4 secs

     WARNING: integrated charge=     8.00027200, expected=     8.00000000

     total energy              =     -23.91043074 Ry
     estimated scf accuracy    <       0.00000058 Ry

     iteration # 26     ecut=    60.00 Ry     beta= 0.70
     Davidson diagonalization with overlap
     ethr =  4.53E-09,  avg # of iterations =  1.9

     negative rho (up, down):  1.271E-04 0.000E+00

     total cpu time spent up to now is       32.3 secs

     WARNING: integrated charge=     8.00027216, expected=     8.00000000

     total energy              =     -23.91043078 Ry
     estimated scf accuracy    <       0.00000002 Ry

     iteration # 27     ecut=    60.00 Ry     beta= 0.70
     Davidson diagonalization with overlap
     ethr =  2.99E-10,  avg # of iterations =  4.7

     negative rho (up, down):  1.272E-04 0.000E+00

     total cpu time spent up to now is       33.6 secs

     End of self-consistent calculation

          k = 0.0625 0.1083 0.0103 (  4174 PWs)   bands (ev):

   -20.9634  -9.0120  -5.8024  -5.3701   1.7955   2.5880   2.9037   4.8029

          k = 0.0625 0.1083 0.0308 (  4179 PWs)   bands (ev):

   -20.9634  -9.0120  -5.8023  -5.3701   1.8108   2.4654   3.0747   4.5808

          k = 0.0625 0.1083 0.0513 (  4175 PWs)   bands (ev):

   -20.9634  -9.0120  -5.8023  -5.3701   1.8362   2.3526   3.2800   4.3138

          k = 0.0625 0.1083 0.0719 (  4175 PWs)   bands (ev):

   -20.9634  -9.0120  -5.8023  -5.3701   1.8580   2.2852   3.4539   4.1042

          k = 0.0625 0.2526 0.0103 (  4184 PWs)   bands (ev):

   -20.0483  -8.3801  -7.9287  -6.7331   3.0569   3.8548   4.1763   6.0252

          k = 0.0625 0.2526 0.0308 (  4177 PWs)   bands (ev):

   -20.0483  -8.3801  -7.9287  -6.7331   3.0712   3.7374   4.3418   5.8203

          k = 0.0625 0.2526 0.0513 (  4175 PWs)   bands (ev):

   -20.0483  -8.3801  -7.9287  -6.7331   3.0946   3.6288   4.5425   5.5666

          k = 0.0625 0.2526 0.0719 (  4177 PWs)   bands (ev):

   -20.0483  -8.3801  -7.9287  -6.7331   3.1143   3.5643   4.7106   5.3667

          k = 0.0625 0.3969 0.0103 (  4188 PWs)   bands (ev):

   -18.4305 -11.5990  -7.8960  -6.0887   2.8731   5.3123   6.1438   6.3540

          k = 0.0625 0.3969 0.0308 (  4190 PWs)   bands (ev):

   -18.4305 -11.5990  -7.8960  -6.0887   2.8731   5.3244   6.0320   6.3859

          k = 0.0625 0.3969 0.0513 (  4187 PWs)   bands (ev):

   -18.4305 -11.5990  -7.8960  -6.0887   2.8731   5.3436   5.9307   6.3944

          k = 0.0625 0.3969 0.0719 (  4180 PWs)   bands (ev):

   -18.4305 -11.5989  -7.8960  -6.0887   2.8731   5.3591   5.8721   6.3967

          k = 0.0625 0.5413 0.0103 (  4196 PWs)   bands (ev):

   -16.2623 -14.5507  -8.4404  -4.1369   0.1333   6.1154   8.5513   9.3675

          k = 0.0625 0.5413 0.0308 (  4192 PWs)   bands (ev):

   -16.2623 -14.5507  -8.4404  -4.1368   0.1333   6.1154   8.5605   9.2875

          k = 0.0625 0.5413 0.0513 (  4188 PWs)   bands (ev):

   -16.2623 -14.5506  -8.4404  -4.1368   0.1333   6.1154   8.5747   9.2063

          k = 0.0625 0.5413 0.0719 (  4190 PWs)   bands (ev):

   -16.2623 -14.5507  -8.4404  -4.1369   0.1333   6.1154   8.5857   9.1580

          k = 0.0625-0.4691 0.0103 (  4183 PWs)   bands (ev):

   -17.3839 -13.1623  -8.2564  -5.0126   1.2815   6.1952   6.8381   7.6469

          k = 0.0625-0.4691 0.0308 (  4181 PWs)   bands (ev):

   -17.3839 -13.1623  -8.2563  -5.0126   1.2815   6.1953   6.8494   7.5480

          k = 0.0625-0.4691 0.0513 (  4189 PWs)   bands (ev):

   -17.3839 -13.1623  -8.2564  -5.0126   1.2815   6.1953   6.8672   7.4524

          k = 0.0625-0.4691 0.0719 (  4193 PWs)   bands (ev):

   -17.3839 -13.1623  -8.2564  -5.0126   1.2814   6.1954   6.8816   7.3966

          k = 0.0625-0.3248 0.0103 (  4174 PWs)   bands (ev):

   -19.3240  -9.9766  -7.3772  -7.0890   4.0630   4.5295   4.9287   5.1986

          k = 0.0625-0.3248 0.0308 (  4174 PWs)   bands (ev):

   -19.3240  -9.9766  -7.3771  -7.0890   4.0764   4.5208   4.8154   5.3692

          k = 0.0625-0.3248 0.0513 (  4182 PWs)   bands (ev):

   -19.3240  -9.9766  -7.3772  -7.0890   4.0981   4.5016   4.7269   5.5710

          k = 0.0625-0.3248 0.0719 (  4186 PWs)   bands (ev):

   -19.3240  -9.9766  -7.3772  -7.0890   4.1163   4.4809   4.6850   5.7426

          k = 0.0625-0.1804 0.0103 (  4174 PWs)   bands (ev):

   -20.5962  -8.5749  -6.9321  -6.0250   2.3004   3.0960   3.4131   5.3035

          k = 0.0625-0.1804 0.0308 (  4176 PWs)   bands (ev):

   -20.5962  -8.5749  -6.9321  -6.0250   2.3153   2.9751   3.5824   5.0827

          k = 0.0625-0.1804 0.0513 (  4172 PWs)   bands (ev):

   -20.5962  -8.5749  -6.9321  -6.0250   2.3399   2.8637   3.7863   4.8177

          k = 0.0625-0.1804 0.0719 (  4175 PWs)   bands (ev):

   -20.5962  -8.5749  -6.9321  -6.0250   2.3609   2.7976   3.9589   4.6091

          k = 0.0625-0.0361 0.0103 (  4164 PWs)   bands (ev):

   -21.1476  -9.2322  -5.1543  -4.9773   1.5430   2.3337   2.6491   4.5514

          k = 0.0625-0.0361 0.0308 (  4167 PWs)   bands (ev):

   -21.1476  -9.2322  -5.1543  -4.9773   1.5585   2.2103   2.8207   4.3292

          k = 0.0625-0.0361 0.0513 (  4171 PWs)   bands (ev):

   -21.1476  -9.2322  -5.1543  -4.9773   1.5843   2.0969   3.0265   4.0618

          k = 0.0625-0.0361 0.0719 (  4167 PWs)   bands (ev):

   -21.1476  -9.2322  -5.1543  -4.9773   1.6065   2.0288   3.2010   3.8513

          k = 0.1875 0.3248 0.0103 (  4165 PWs)   bands (ev):

   -18.7871 -10.2381  -8.8128  -6.4681   3.7487   4.8183   5.6146   5.9570

          k = 0.1875 0.3248 0.0308 (  4166 PWs)   bands (ev):

   -18.7871 -10.2381  -8.8128  -6.4681   3.7487   4.8312   5.5084   6.1096

          k = 0.1875 0.3248 0.0513 (  4166 PWs)   bands (ev):

   -18.7870 -10.2381  -8.8128  -6.4681   3.7487   4.8518   5.4073   6.2985

          k = 0.1875 0.3248 0.0719 (  4163 PWs)   bands (ev):

   -18.7870 -10.2381  -8.8128  -6.4681   3.7487   4.8688   5.3477   6.4546

          k = 0.1875 0.4691 0.0103 (  4163 PWs)   bands (ev):

   -16.8748 -12.8318 -10.0994  -4.4035   0.9362   7.5505   8.2580   8.7218

          k = 0.1875 0.4691 0.0308 (  4163 PWs)   bands (ev):

   -16.8748 -12.8318 -10.0994  -4.4035   0.9362   7.5602   8.1960   8.8011

          k = 0.1875 0.4691 0.0513 (  4168 PWs)   bands (ev):

   -16.8748 -12.8318 -10.0994  -4.4035   0.9362   7.5756   8.1260   8.8866

          k = 0.1875 0.4691 0.0719 (  4172 PWs)   bands (ev):

   -16.8748 -12.8318 -10.0994  -4.4035   0.9362   7.5877   8.0824   9.0269

          k = 0.1875 0.6134 0.0103 (  4184 PWs)   bands (ev):

   -15.7792 -14.1293 -10.3231  -3.4827  -0.1551   8.7896   9.2638   9.5130

          k = 0.1875 0.6134 0.0308 (  4177 PWs)   bands (ev):

   -15.7792 -14.1293 -10.3231  -3.4827  -0.1551   8.7897   9.2712   9.5044

          k = 0.1875 0.6134 0.0513 (  4172 PWs)   bands (ev):

   -15.7792 -14.1293 -10.3231  -3.4827  -0.1551   8.7898   9.2827   9.4911

          k = 0.1875 0.6134 0.0719 (  4175 PWs)   bands (ev):

   -15.7792 -14.1293 -10.3231  -3.4827  -0.1551   8.7899   9.2919   9.4805

          k = 0.1875-0.3969 0.0103 (  4169 PWs)   bands (ev):

   -17.9044 -11.4598  -9.6208  -5.4811   2.3319   6.0679   6.8469   7.2232

          k = 0.1875-0.3969 0.0308 (  4168 PWs)   bands (ev):

   -17.9044 -11.4598  -9.6208  -5.4811   2.3319   6.0796   6.7550   7.3580

          k = 0.1875-0.3969 0.0513 (  4173 PWs)   bands (ev):

   -17.9044 -11.4598  -9.6208  -5.4811   2.3319   6.0980   6.6632   7.5286

          k = 0.1875-0.3969 0.0719 (  4176 PWs)   bands (ev):

   -17.9044 -11.4598  -9.6208  -5.4811   2.3318   6.1129   6.6086   7.6658

          k = 0.1875-0.2526 0.0103 (  4168 PWs)   bands (ev):

   -19.5046  -9.2550  -7.7340  -7.2937   3.8130   4.6078   4.9379   5.0859

          k = 0.1875-0.2526 0.0308 (  4177 PWs)   bands (ev):

   -19.5046  -9.2550  -7.7341  -7.2937   3.8268   4.4964   5.0523   5.1310

          k = 0.1875-0.2526 0.0513 (  4177 PWs)   bands (ev):

   -19.5046  -9.2550  -7.7340  -7.2937   3.8490   4.3913   5.0699   5.3100

          k = 0.1875-0.2526 0.0719 (  4177 PWs)   bands (ev):

   -19.5046  -9.2550  -7.7341  -7.2937   3.8676   4.3290   5.0719   5.4740

          k = 0.1875-0.1083 0.0103 (  4180 PWs)   bands (ev):

   -20.4131  -8.3584  -7.5624  -6.1356   2.5524   3.3493   3.6674   5.5504

          k = 0.1875-0.1083 0.0308 (  4185 PWs)   bands (ev):

   -20.4131  -8.3584  -7.5624  -6.1356   2.5672   3.2294   3.8356   5.3313

          k = 0.1875-0.1083 0.0513 (  4186 PWs)   bands (ev):

   -20.4131  -8.3584  -7.5624  -6.1356   2.5913   3.1189   4.0385   5.0681

          k = 0.1875-0.1083 0.0719 (  4176 PWs)   bands (ev):

   -20.4131  -8.3584  -7.5624  -6.1356   2.6119   3.0532   4.2100   4.8607

          k = 0.3125 0.5413 0.0103 (  4156 PWs)   bands (ev):

   -14.8691 -13.8751 -12.1298  -2.3300  -1.0945   8.9630  10.5181  11.3042

          k = 0.3125 0.5413 0.0308 (  4162 PWs)   bands (ev):

   -14.8691 -13.8751 -12.1298  -2.3300  -1.0945   8.9630  10.5219  11.3044

          k = 0.3125 0.5413 0.0513 (  4160 PWs)   bands (ev):

   -14.8691 -13.8751 -12.1298  -2.3300  -1.0945   8.9629  10.5268  11.3044

          k = 0.3125 0.5413 0.0719 (  4158 PWs)   bands (ev):

   -14.8691 -13.8751 -12.1298  -2.3300  -1.0945   8.9628  10.5307  11.3042

          k = 0.3125 0.6856 0.0103 (  4158 PWs)   bands (ev):

   -15.8948 -13.3034 -11.3045  -3.3808  -0.0722   8.9952   9.0509  10.2090

          k = 0.3125 0.6856 0.0308 (  4155 PWs)   bands (ev):

   -15.8948 -13.3034 -11.3045  -3.3808  -0.0722   9.0008   9.0482  10.1490

          k = 0.3125 0.6856 0.0513 (  4152 PWs)   bands (ev):

   -15.8948 -13.3034 -11.3045  -3.3808  -0.0722   9.0105   9.0426  10.0860

          k = 0.3125 0.6856 0.0719 (  4156 PWs)   bands (ev):

   -15.8948 -13.3034 -11.3045  -3.3808  -0.0722   9.0215   9.0345  10.0495

          k = 0.3125-0.3248 0.0103 (  4177 PWs)   bands (ev):

   -17.7294 -12.2765  -8.8818  -5.3197   1.9155   6.3127   7.1209   7.3750

          k = 0.3125-0.3248 0.0308 (  4181 PWs)   bands (ev):

   -17.7294 -12.2765  -8.8818  -5.3197   1.9155   6.3239   7.0238   7.4078

          k = 0.3125-0.3248 0.0513 (  4175 PWs)   bands (ev):

   -17.7294 -12.2765  -8.8818  -5.3197   1.9155   6.3415   6.9301   7.4133

          k = 0.3125-0.3248 0.0719 (  4185 PWs)   bands (ev):

   -17.7294 -12.2765  -8.8818  -5.3197   1.9155   6.3556   6.8755   7.4160

          k = 0.3125-0.1804 0.0103 (  4187 PWs)   bands (ev):

   -18.9645 -10.8141  -7.3636  -6.6841   3.7814   4.5624   5.4013   5.6937

          k = 0.3125-0.1804 0.0308 (  4184 PWs)   bands (ev):

   -18.9645 -10.8141  -7.3636  -6.6841   3.7813   4.5753   5.2827   5.8599

          k = 0.3125-0.1804 0.0513 (  4181 PWs)   bands (ev):

   -18.9645 -10.8141  -7.3636  -6.6841   3.7812   4.5960   5.1767   6.0332

          k = 0.3125-0.1804 0.0719 (  4182 PWs)   bands (ev):

   -18.9645 -10.8141  -7.3636  -6.6841   3.7812   4.6129   5.1153   6.0876

          k = 0.4375 0.7578 0.0103 (  4184 PWs)   bands (ev):

   -15.7575 -14.7397  -9.2665  -3.7357  -0.1344   7.2223   9.6683   9.8259

          k = 0.4375 0.7578 0.0308 (  4186 PWs)   bands (ev):

   -15.7575 -14.7397  -9.2665  -3.7358  -0.1344   7.2223   9.6749   9.8343

          k = 0.4375 0.7578 0.0513 (  4182 PWs)   bands (ev):

   -15.7575 -14.7397  -9.2665  -3.7357  -0.1343   7.2223   9.6837   9.8499

          k = 0.4375 0.7578 0.0719 (  4180 PWs)   bands (ev):

   -15.7575 -14.7397  -9.2665  -3.7357  -0.1343   7.2223   9.6903   9.8578

          k = 0.4375-0.2526 0.0103 (  4183 PWs)   bands (ev):

   -16.8808 -13.9470  -8.0695  -4.5959   0.6378   5.7377   7.5719   8.4054

          k = 0.4375-0.2526 0.0308 (  4187 PWs)   bands (ev):

   -16.8808 -13.9470  -8.0695  -4.5960   0.6378   5.7377   7.5824   8.3089

          k = 0.4375-0.2526 0.0513 (  4189 PWs)   bands (ev):

   -16.8808 -13.9470  -8.0695  -4.5960   0.6378   5.7377   7.5988   8.2167

          k = 0.4375-0.2526 0.0719 (  4194 PWs)   bands (ev):

   -16.8808 -13.9470  -8.0695  -4.5960   0.6378   5.7377   7.6117   8.1627

     the Fermi energy is    -1.5415 ev

     WARNING: integrated charge=     8.00027211, expected=     8.00000000

!    total energy              =     -23.91043082 Ry
     estimated scf accuracy    <          4.8E-09 Ry
     smearing contrib. (-TS)   =       0.00000432 Ry
     internal energy E=F+TS    =     -23.91043513 Ry

     The total energy is F=E-TS. E is the sum of the following terms:
     one-electron contribution =    -157.40128064 Ry
     hartree contribution      =      80.16471103 Ry
     xc contribution           =      -8.30351265 Ry
     ewald contribution        =      61.62964711 Ry

     convergence has been achieved in  27 iterations

     negative rho (up, down):  1.272E-04 0.000E+00

     Forces acting on atoms (cartesian axes, Ry/au):

     atom    1 type  1   force =     0.00000000    0.00000000    0.00000000
     atom    2 type  1   force =     0.00000000    0.00000000    0.00000000

     Total force =     0.000000     Total SCF correction =     0.000000


     Computing stress (Cartesian axis) and pressure


     negative rho (up, down):  1.272E-04 0.000E+00
          total   stress  (Ry/bohr**3)                   (kbar)     P=       -0.34
  -0.00000195  -0.00000000  -0.00000000           -0.29       -0.00       -0.00
  -0.00000000  -0.00000195   0.00000000           -0.00       -0.29        0.00
  -0.00000000   0.00000000  -0.00000292           -0.00        0.00       -0.43


     Writing all to output data dir /home/rfa/Skripsi/DFT/dft-graphene/tmp/gr-1L.save/ :
     XML data file, charge density, pseudopotentials, collected wavefunctions

     init_run     :      0.92s CPU      1.00s WALL (       1 calls)
     electrons    :     58.26s CPU     32.60s WALL (       1 calls)
     forces       :      0.11s CPU      0.06s WALL (       1 calls)
     stress       :      0.43s CPU      0.24s WALL (       1 calls)

     Called by init_run:
     wfcinit      :      0.54s CPU      0.30s WALL (       1 calls)
     potinit      :      0.01s CPU      0.01s WALL (       1 calls)
     hinit0       :      0.34s CPU      0.65s WALL (       1 calls)

     Called by electrons:
     c_bands      :     50.34s CPU     28.04s WALL (      28 calls)
     sum_band     :      7.28s CPU      4.02s WALL (      28 calls)
     v_of_rho     :      0.19s CPU      0.20s WALL (      28 calls)
     newd         :      0.21s CPU      0.18s WALL (      28 calls)
     mix_rho      :      0.20s CPU      0.11s WALL (      28 calls)

     Called by c_bands:
     init_us_2    :      1.30s CPU      0.71s WALL (    4720 calls)
     cegterg      :     47.87s CPU     26.53s WALL (    2240 calls)

     Called by *egterg:
     cdiaghg      :      2.48s CPU      1.33s WALL (   10126 calls)
     h_psi        :     39.60s CPU     22.03s WALL (   10286 calls)
     s_psi        :      0.52s CPU      0.29s WALL (   10286 calls)
     g_psi        :      0.39s CPU      0.20s WALL (    7966 calls)

     Called by h_psi:
     h_psi:calbec :      2.26s CPU      1.26s WALL (   10286 calls)
     vloc_psi     :     35.88s CPU     19.92s WALL (   10286 calls)
     add_vuspsi   :      0.90s CPU      0.49s WALL (   10286 calls)

     General routines
     calbec       :      2.62s CPU      1.45s WALL (   13886 calls)
     fft          :      0.42s CPU      0.72s WALL (     334 calls)
     ffts         :      0.02s CPU      0.01s WALL (      28 calls)
     fftw         :     36.09s CPU     20.09s WALL (  126054 calls)

     Parallel routines

     PWSCF        :     59.88s CPU     34.68s WALL


   This run was terminated on:   6: 3:22  22Apr2025            

=------------------------------------------------------------------------------=
   JOB DONE.
=------------------------------------------------------------------------------=
