
     Program PWSCF v.7.4.1 starts on 16Apr2025 at 15:26:17 

     This program is part of the open-source Quantum ESPRESSO suite
     for quantum simulation of materials; please cite
         "P. Giannozzi et al., J. Phys.:Condens. Matter 21 395502 (2009);
         "P. Giannozzi et al., J. Phys.:Condens. Matter 29 465901 (2017);
         "P. Giannozzi et al., J. Chem. Phys. 152 154105 (2020);
          URL http://www.quantum-espresso.org", 
     in publications or presentations arising from this work. More details at
     http://www.quantum-espresso.org/quote

     Parallel version (MPI), running on     7 processors

     MPI processes distributed on     1 nodes
     14473 MiB available memory on the printing compute node when the environment starts

     Waiting for input...
     Reading input from standard input

     Current dimensions of program PWSCF are:
     Max number of different atomic species (ntypx) = 10
     Max number of k-points (npk) =  40000
     Max angular momentum in pseudopotentials (lmaxx) =  4

     R & G space division:  proc/nbgrp/npool/nimage =       7
     Subspace diagonalization in iterative solution of the eigenvalue problem:
     a serial algorithm will be used


     Parallelization info
     --------------------
     sticks:   dense  smooth     PW     G-vecs:    dense   smooth      PW
     Min          21      21      7                 1345     1345     271
     Max          22      22      8                 1372     1372     290
     Sum         151     151     55                 9519     9519    1981

     Using Slab Decomposition



     bravais-lattice index     =            4
     lattice parameter (alat)  =       4.6561  a.u.
     unit-cell volume          =     532.1899 (a.u.)^3
     number of atoms/cell      =            6
     number of atomic types    =            1
     number of electrons       =        24.00
     number of Kohn-Sham states=           16
     kinetic-energy cutoff     =      26.0000  Ry
     charge density cutoff     =     104.0000  Ry
     scf convergence threshold =      1.0E-08
     mixing beta               =       0.7000
     number of iterations used =            8  plain     mixing
     Exchange-correlation= PBE
                           (   1   4   3   4   0   0   0)

     celldm(1)=   4.656107  celldm(2)=   0.000000  celldm(3)=   6.087896
     celldm(4)=   0.000000  celldm(5)=   0.000000  celldm(6)=   0.000000

     crystal axes: (cart. coord. in units of alat)
               a(1) = (   1.000000   0.000000   0.000000 )  
               a(2) = (  -0.500000   0.866025   0.000000 )  
               a(3) = (   0.000000   0.000000   6.087896 )  

     reciprocal axes: (cart. coord. in units 2 pi/alat)
               b(1) = (  1.000000  0.577350 -0.000000 )  
               b(2) = (  0.000000  1.154701  0.000000 )  
               b(3) = (  0.000000 -0.000000  0.164260 )  


     PseudoPot. # 1 for C  read from file:
     /run/media/rfa/SATA/Skripsi/DFT/Graphene-copy/pseudo/C.pbe-n-rrkjus_psl.0.1.UPF
     MD5 check sum: 96a6a315177d77e6c95bf6fd3870f9e3
     Pseudo is Ultrasoft + core correction, Zval =  4.0
     Generated using &quot;atomic&quot; code by A. Dal Corso  v.6.3MaX
     Using radial grid of 1073 points,  4 beta functions with: 
                l(1) =   0
                l(2) =   0
                l(3) =   1
                l(4) =   1
     Q(r) pseudized with 0 coefficients 


     atomic species   valence    mass     pseudopotential
     C                 4.00    12.01070     C ( 1.00)

      6 Sym. Ops. (no inversion) found



   Cartesian axes

     site n.     atom                  positions (alat units)
         1        C      tau(   1) = (   0.0000000   0.5773503   3.0439478  )
         2        C      tau(   2) = (   0.5000000   0.2886751   3.0439478  )
         3        C      tau(   3) = (   0.0000000   0.0000000   3.2468777  )
         4        C      tau(   4) = (   0.0000000   0.5773503   3.2468777  )
         5        C      tau(   5) = (   0.5000000   0.2886751   3.4498075  )
         6        C      tau(   6) = (   0.0000000   0.0000000   3.4498075  )

     number of k points=    19  Marzari-Vanderbilt smearing, width (Ry)=  0.0200
                       cart. coord. in units 2pi/alat
        k(    1) = (   0.0000000   0.0000000   0.0000000), wk =   0.0138889
        k(    2) = (   0.0000000   0.0962250   0.0000000), wk =   0.0833333
        k(    3) = (   0.0000000   0.1924501   0.0000000), wk =   0.0833333
        k(    4) = (   0.0000000   0.2886751   0.0000000), wk =   0.0833333
        k(    5) = (   0.0000000   0.3849002   0.0000000), wk =   0.0833333
        k(    6) = (   0.0000000   0.4811252   0.0000000), wk =   0.0833333
        k(    7) = (   0.0000000  -0.5773503   0.0000000), wk =   0.0416667
        k(    8) = (   0.0833333   0.1443376   0.0000000), wk =   0.0833333
        k(    9) = (   0.0833333   0.2405626   0.0000000), wk =   0.1666667
        k(   10) = (   0.0833333   0.3367877   0.0000000), wk =   0.1666667
        k(   11) = (   0.0833333   0.4330127   0.0000000), wk =   0.1666667
        k(   12) = (   0.0833333   0.5292377   0.0000000), wk =   0.1666667
        k(   13) = (   0.1666667   0.2886751   0.0000000), wk =   0.0833333
        k(   14) = (   0.1666667   0.3849002   0.0000000), wk =   0.1666667
        k(   15) = (   0.1666667   0.4811252   0.0000000), wk =   0.1666667
        k(   16) = (   0.1666667   0.5773503   0.0000000), wk =   0.0833333
        k(   17) = (   0.2500000   0.4330127   0.0000000), wk =   0.0833333
        k(   18) = (   0.2500000   0.5292377   0.0000000), wk =   0.1666667
        k(   19) = (   0.3333333   0.5773503   0.0000000), wk =   0.0277778

     Dense  grid:     9519 G-vectors     FFT dimensions: (  15,  15,  96)

     Estimated max dynamical RAM per process >       3.23 MB

     Estimated total dynamical RAM >      22.58 MB

     Check: negative core charge=   -0.000090

     Initial potential from superposition of free atoms

     starting charge      23.9998, renormalised to      24.0000

     negative rho (up, down):  8.333E-03 0.000E+00
     Starting wfcs are   24 randomized atomic wfcs

     total cpu time spent up to now is        6.2 secs

     per-process dynamical memory:     8.9 Mb

     Self-consistent Calculation

     iteration #  1     ecut=    26.00 Ry     beta= 0.70
     Davidson diagonalization with overlap
     ethr =  1.00E-02,  avg # of iterations =  5.6

     negative rho (up, down):  9.144E-02 0.000E+00

     total cpu time spent up to now is       29.2 secs

     total energy              =     -41.32572208 Ry
     estimated scf accuracy    <      10.17868473 Ry

     iteration #  2     ecut=    26.00 Ry     beta= 0.70
     Davidson diagonalization with overlap
     ethr =  1.00E-02,  avg # of iterations = 11.9

     negative rho (up, down):  9.602E-05 0.000E+00

     total cpu time spent up to now is       62.6 secs

     total energy              =     -31.15273354 Ry
     estimated scf accuracy    <      59.66136294 Ry

     iteration #  3     ecut=    26.00 Ry     beta= 0.70
     Davidson diagonalization with overlap
     ethr =  1.00E-02,  avg # of iterations = 10.7

     negative rho (up, down):  3.182E-04 0.000E+00

     total cpu time spent up to now is       67.0 secs

     total energy              =     -45.65907120 Ry
     estimated scf accuracy    <       1.87488901 Ry

     iteration #  4     ecut=    26.00 Ry     beta= 0.70
     Davidson diagonalization with overlap
     ethr =  7.81E-03,  avg # of iterations =  2.2

     negative rho (up, down):  1.411E-03 0.000E+00

     total cpu time spent up to now is       67.2 secs

     total energy              =     -45.71135955 Ry
     estimated scf accuracy    <       0.78450815 Ry

     iteration #  5     ecut=    26.00 Ry     beta= 0.70
     Davidson diagonalization with overlap
     ethr =  3.27E-03,  avg # of iterations =  1.4

     negative rho (up, down):  2.846E-03 0.000E+00

     total cpu time spent up to now is       67.3 secs

     total energy              =     -45.62496025 Ry
     estimated scf accuracy    <       0.51564460 Ry

     iteration #  6     ecut=    26.00 Ry     beta= 0.70
     Davidson diagonalization with overlap
     ethr =  2.15E-03,  avg # of iterations =  1.2

     negative rho (up, down):  4.947E-03 0.000E+00

     total cpu time spent up to now is       67.4 secs

     total energy              =     -45.56322563 Ry
     estimated scf accuracy    <       0.37119698 Ry

     iteration #  7     ecut=    26.00 Ry     beta= 0.70
     Davidson diagonalization with overlap
     ethr =  1.55E-03,  avg # of iterations =  1.1

     negative rho (up, down):  8.063E-03 0.000E+00

     total cpu time spent up to now is       67.5 secs

     total energy              =     -45.52271943 Ry
     estimated scf accuracy    <       0.23363610 Ry

     iteration #  8     ecut=    26.00 Ry     beta= 0.70
     Davidson diagonalization with overlap
     ethr =  9.73E-04,  avg # of iterations =  1.4

     negative rho (up, down):  1.103E-02 0.000E+00

     total cpu time spent up to now is       67.6 secs

     total energy              =     -45.50274418 Ry
     estimated scf accuracy    <       0.15717979 Ry

     iteration #  9     ecut=    26.00 Ry     beta= 0.70
     Davidson diagonalization with overlap
     ethr =  6.55E-04,  avg # of iterations =  1.6

     negative rho (up, down):  6.416E-02 0.000E+00

     total cpu time spent up to now is       67.8 secs

     total energy              =     -45.40770311 Ry
     estimated scf accuracy    <       0.12394231 Ry

     iteration # 10     ecut=    26.00 Ry     beta= 0.70
     Davidson diagonalization with overlap
     ethr =  5.16E-04,  avg # of iterations =  9.0

     negative rho (up, down):  5.134E-02 0.000E+00

     total cpu time spent up to now is       83.1 secs

     total energy              =     -45.42618502 Ry
     estimated scf accuracy    <       0.00192466 Ry

     iteration # 11     ecut=    26.00 Ry     beta= 0.70
     Davidson diagonalization with overlap
     c_bands:  1 eigenvalues not converged
     c_bands:  2 eigenvalues not converged
     c_bands:  1 eigenvalues not converged
     c_bands:  1 eigenvalues not converged
     c_bands:  1 eigenvalues not converged
     c_bands:  1 eigenvalues not converged
     c_bands:  1 eigenvalues not converged
     ethr =  8.02E-06,  avg # of iterations = 14.6

     negative rho (up, down):  6.879E-02 0.000E+00

     total cpu time spent up to now is      117.5 secs

     total energy              =     -45.42393129 Ry
     estimated scf accuracy    <       0.00417996 Ry

     iteration # 12     ecut=    26.00 Ry     beta= 0.70
     Davidson diagonalization with overlap
     c_bands:  1 eigenvalues not converged
     c_bands:  1 eigenvalues not converged
     c_bands:  1 eigenvalues not converged
     c_bands:  1 eigenvalues not converged
     c_bands:  1 eigenvalues not converged
     c_bands:  1 eigenvalues not converged
     c_bands:  1 eigenvalues not converged
     c_bands:  1 eigenvalues not converged
     ethr =  8.02E-06,  avg # of iterations = 15.1

     negative rho (up, down):  6.905E-02 0.000E+00

     total cpu time spent up to now is      149.8 secs

     total energy              =     -45.42415414 Ry
     estimated scf accuracy    <       0.00019422 Ry

     iteration # 13     ecut=    26.00 Ry     beta= 0.70
     Davidson diagonalization with overlap
     c_bands:  1 eigenvalues not converged
     c_bands:  1 eigenvalues not converged
     c_bands:  1 eigenvalues not converged
     ethr =  8.09E-07,  avg # of iterations = 11.6

     negative rho (up, down):  6.828E-02 0.000E+00

     total cpu time spent up to now is      175.3 secs

     total energy              =     -45.42421888 Ry
     estimated scf accuracy    <       0.00003503 Ry

     iteration # 14     ecut=    26.00 Ry     beta= 0.70
     Davidson diagonalization with overlap
     c_bands:  1 eigenvalues not converged
     ethr =  1.46E-07,  avg # of iterations =  5.3

     negative rho (up, down):  6.854E-02 0.000E+00

     total cpu time spent up to now is      175.6 secs

     total energy              =     -45.42423069 Ry
     estimated scf accuracy    <       0.00000815 Ry

     iteration # 15     ecut=    26.00 Ry     beta= 0.70
     Davidson diagonalization with overlap
     ethr =  3.40E-08,  avg # of iterations =  3.4

     negative rho (up, down):  6.856E-02 0.000E+00

     total cpu time spent up to now is      175.8 secs

     total energy              =     -45.42423281 Ry
     estimated scf accuracy    <       0.00000014 Ry

     iteration # 16     ecut=    26.00 Ry     beta= 0.70
     Davidson diagonalization with overlap
     ethr =  5.84E-10,  avg # of iterations =  6.7

     negative rho (up, down):  6.851E-02 0.000E+00

     total cpu time spent up to now is      176.1 secs

     total energy              =     -45.42423304 Ry
     estimated scf accuracy    <       0.00000038 Ry

     iteration # 17     ecut=    26.00 Ry     beta= 0.70
     Davidson diagonalization with overlap
     ethr =  5.84E-10,  avg # of iterations =  4.0

     negative rho (up, down):  6.852E-02 0.000E+00

     total cpu time spent up to now is      176.2 secs

     End of self-consistent calculation

          k = 0.0000 0.0000 0.0000 (  1199 PWs)   bands (ev):

   -34.1750 -25.1619 -25.1619 -20.7449 -20.7449 -19.8758 -11.0093  -1.8887
    -0.9020   1.7899   1.7899   2.2655   2.2655   4.0143   4.6035   4.7989

          k = 0.0000 0.0962 0.0000 (  1187 PWs)   bands (ev):

   -34.1503 -25.8884 -25.8782 -19.8659 -19.7536 -19.4839 -10.7844  -2.7159
    -0.9566   0.3320   0.4779   3.2538   3.9778   4.2821   4.8167   5.4547

          k = 0.0000 0.1925 0.0000 (  1187 PWs)   bands (ev):

   -34.1363 -27.1999 -27.1149 -19.2403 -17.7601 -17.4774 -10.3890  -4.7056
    -1.3222  -0.8973  -0.0639   3.1411   4.9848   5.4456   5.8023   6.3905

          k = 0.0000 0.2887 0.0000 (  1183 PWs)   bands (ev):

   -34.1297 -28.3811 -28.1745 -18.3473 -15.6085 -15.0763 -10.0108  -6.3823
    -1.8113  -1.5123  -0.2443   2.7516   5.7890   6.1260   6.5580   6.8592

          k = 0.0000 0.3849 0.0000 (  1188 PWs)   bands (ev):

   -34.1565 -29.2902 -28.9133 -17.1924 -13.7871 -12.9881 -10.6079  -6.3653
    -2.2376  -1.2544  -0.4772   2.2276   3.8065   5.5931   6.3370   7.7185

          k = 0.0000 0.4811 0.0000 (  1198 PWs)   bands (ev):

   -34.1959 -29.8552 -29.3272 -15.8467 -12.8346 -12.6203 -10.7711  -4.9131
    -2.4175  -0.9145   0.0332   1.5133   2.5928   3.0923   4.5768   9.7474

          k = 0.0000-0.5774 0.0000 (  1194 PWs)   bands (ev):

   -34.2106 -30.0469 -29.4523 -14.6686 -14.0000 -12.1938 -10.3870  -3.8746
    -2.5537  -1.0229   0.8558   1.5708   1.6369   2.5861   2.8249  11.7845

          k = 0.0833 0.1443 0.0000 (  1189 PWs)   bands (ev):

   -34.1400 -26.8248 -26.8075 -19.3994 -18.2907 -18.1404 -10.5035  -4.0108
    -1.7844  -0.2455   0.0666   4.0276   4.3316   4.7816   5.2379   6.1936

          k = 0.0833 0.2406 0.0000 (  1190 PWs)   bands (ev):

   -34.1328 -27.9602 -27.8732 -18.6815 -16.2954 -16.0018 -10.0621  -5.6650
    -2.8470  -0.6373  -0.1673   3.7794   5.5874   5.7962   6.0699   6.6032

          k = 0.0833 0.3368 0.0000 (  1184 PWs)   bands (ev):

   -34.1444 -28.9390 -28.7068 -17.6454 -14.3642 -13.8186 -10.0984  -6.4728
    -3.1087  -1.3072  -0.1490   3.3071   4.4073   6.3551   7.0099   7.1046

          k = 0.0833 0.4330 0.0000 (  1190 PWs)   bands (ev):

   -34.1844 -29.6364 -29.2350 -16.3853 -13.0178 -12.4144 -10.8627  -5.5683
    -2.6342  -1.5972  -0.3508   2.5343   2.9060   4.0725   6.2890   8.8537

          k = 0.0833 0.5292 0.0000 (  1200 PWs)   bands (ev):

   -34.2288 -29.9976 -29.4799 -15.0079 -13.4854 -12.1526 -10.5330  -4.0720
    -2.4246  -1.0456  -0.4123   1.2589   1.6517   3.0194   5.0472  11.0584

          k = 0.1667 0.2887 0.0000 (  1184 PWs)   bands (ev):

   -34.1461 -28.7220 -28.6992 -17.7948 -14.4487 -14.2936  -9.9068  -6.2002
    -3.9950  -1.1991  -0.0304   4.5134   4.9058   5.7998   6.8407   7.0076

          k = 0.1667 0.3849 0.0000 (  1178 PWs)   bands (ev):

   -34.1769 -29.4176 -29.2527 -16.6255 -13.0601 -12.7130 -10.3955  -5.7249
    -3.8052  -1.9282  -0.0530   2.7278   4.0222   5.2331   7.2654   8.4290

          k = 0.1667 0.4811 0.0000 (  1198 PWs)   bands (ev):

   -34.2544 -29.8760 -29.5558 -15.3349 -12.8970 -11.8942 -10.8196  -4.4291
    -2.5169  -2.3365  -0.5649   1.3474   1.8276   4.4198   7.5694  10.4247

          k = 0.1667 0.5774 0.0000 (  1196 PWs)   bands (ev):

   -34.2803 -30.0310 -29.6437 -13.9667 -13.9413 -11.8233 -10.5992  -3.3496
    -2.4970  -1.3658  -0.6499  -0.2118   0.9561   4.1745   7.3342  11.2686

          k = 0.2500 0.4330 0.0000 (  1180 PWs)   bands (ev):

   -34.2642 -29.7637 -29.6271 -15.4347 -12.6348 -11.7941 -10.8595  -4.6002
    -3.1983  -2.4690  -0.1804   1.0636   2.0887   5.6289   8.4648  10.1842

          k = 0.2500 0.5292 0.0000 (  1200 PWs)   bands (ev):

   -34.3257 -29.9760 -29.7967 -14.2020 -12.9894 -11.9003 -10.8225  -3.1772
    -2.5863  -1.8238  -0.9359  -0.0171   0.0570   5.7660   9.3905   9.6135

          k = 0.3333 0.5774 0.0000 (  1212 PWs)   bands (ev):

   -34.3592 -29.9502 -29.9500 -13.6374 -12.5984 -12.5980 -10.8121  -2.2498
    -1.9610  -1.9601  -0.9822  -0.9801  -0.9182   7.4272   7.4276  11.0139

     the Fermi energy is     2.6980 ev

!    total energy              =     -45.42423309 Ry
     estimated scf accuracy    <          2.8E-09 Ry
     smearing contrib. (-TS)   =      -0.00122605 Ry
     internal energy E=F+TS    =     -45.42300704 Ry

     The total energy is F=E-TS. E is the sum of the following terms:
     one-electron contribution =   -1327.67988702 Ry
     hartree contribution      =     670.68922347 Ry
     xc contribution           =     -31.73623193 Ry
     ewald contribution        =     643.30388845 Ry

     convergence has been achieved in  17 iterations

     negative rho (up, down):  6.852E-02 0.000E+00

     Forces acting on atoms (cartesian axes, Ry/au):

     atom    1 type  1   force =     0.00000000    0.00000000  -26.97860208
     atom    2 type  1   force =     0.00000000   -0.00000000   -3.05786035
     atom    3 type  1   force =     0.00000000    0.00000000  -26.20695948
     atom    4 type  1   force =     0.00000000    0.00000000   26.20419512
     atom    5 type  1   force =     0.00000000    0.00000000    3.05946038
     atom    6 type  1   force =     0.00000000    0.00000000   26.97976641

     Total force =    53.365983     Total SCF correction =     0.000129


     Computing stress (Cartesian axis) and pressure


     negative rho (up, down):  6.852E-02 0.000E+00
          total   stress  (Ry/bohr**3)                   (kbar)     P=     6097.81
   0.01347208   0.00000000   0.00000000         1981.81        0.00        0.00
   0.00000000   0.01347208   0.00000000            0.00     1981.81        0.00
   0.00000000   0.00000000   0.09741198            0.00        0.00    14329.80


     Writing all to output data dir /run/media/rfa/SATA/Skripsi/DFT/Graphene-copy/tmp/gr-abc-3L.save/ :
     XML data file, charge density, pseudopotentials, collected wavefunctions

     init_run     :      3.47s CPU      5.97s WALL (       1 calls)
     electrons    :    114.08s CPU    170.05s WALL (       1 calls)
     forces       :      0.03s CPU      0.02s WALL (       1 calls)
     stress       :      0.10s CPU      0.06s WALL (       1 calls)

     Called by init_run:
     wfcinit      :      3.19s CPU      5.39s WALL (       1 calls)
     potinit      :      0.01s CPU      0.02s WALL (       1 calls)
     hinit0       :      0.17s CPU      0.44s WALL (       1 calls)

     Called by electrons:
     c_bands      :    110.04s CPU    164.17s WALL (      17 calls)
     sum_band     :      3.43s CPU      4.95s WALL (      17 calls)
     v_of_rho     :      0.09s CPU      0.12s WALL (      18 calls)
     newd         :      0.51s CPU      0.71s WALL (      18 calls)
     mix_rho      :      0.03s CPU      0.04s WALL (      17 calls)

     Called by c_bands:
     init_us_2    :      0.10s CPU      0.07s WALL (     703 calls)
     cegterg      :    107.97s CPU    161.59s WALL (     323 calls)

     Called by *egterg:
     cdiaghg      :     38.34s CPU     54.31s WALL (    2349 calls)
     h_psi        :     28.79s CPU     43.88s WALL (    2368 calls)
     s_psi        :      5.02s CPU      6.90s WALL (    2368 calls)
     g_psi        :      0.05s CPU      0.04s WALL (    2026 calls)

     Called by h_psi:
     h_psi:calbec :     16.20s CPU     20.63s WALL (    2368 calls)
     vloc_psi     :      9.22s CPU     18.95s WALL (    2368 calls)
     add_vuspsi   :      3.29s CPU      4.22s WALL (    2368 calls)

     General routines
     calbec       :     18.45s CPU     23.63s WALL (    3014 calls)
     fft          :      0.20s CPU      0.49s WALL (     223 calls)
     ffts         :      0.01s CPU      0.02s WALL (      17 calls)
     fftw         :      9.68s CPU     20.27s WALL (   39898 calls)

     Parallel routines

     PWSCF        :   1m57.83s CPU   2m56.45s WALL


   This run was terminated on:  15:29:13  16Apr2025            

=------------------------------------------------------------------------------=
   JOB DONE.
=------------------------------------------------------------------------------=
