
     Program PWSCF v.7.4.1 starts on 16Apr2025 at 16: 8: 9 

     This program is part of the open-source Quantum ESPRESSO suite
     for quantum simulation of materials; please cite
         "P. Giannozzi et al., J. Phys.:Condens. Matter 21 395502 (2009);
         "P. Giannozzi et al., J. Phys.:Condens. Matter 29 465901 (2017);
         "P. Giannozzi et al., J. Chem. Phys. 152 154105 (2020);
          URL http://www.quantum-espresso.org", 
     in publications or presentations arising from this work. More details at
     http://www.quantum-espresso.org/quote

     Parallel version (MPI), running on     7 processors

     MPI processes distributed on     1 nodes
     13229 MiB available memory on the printing compute node when the environment starts

     Waiting for input...
     Reading input from standard input

     Current dimensions of program PWSCF are:
     Max number of different atomic species (ntypx) = 10
     Max number of k-points (npk) =  40000
     Max angular momentum in pseudopotentials (lmaxx) =  4

     R & G space division:  proc/nbgrp/npool/nimage =       7
     Subspace diagonalization in iterative solution of the eigenvalue problem:
     a serial algorithm will be used


     Parallelization info
     --------------------
     sticks:   dense  smooth     PW     G-vecs:    dense   smooth      PW
     Min          60      60     17                 6028     6028    1003
     Max          61      61     18                 6053     6053    1030
     Sum         421     421    121                42223    42223    7091

     Using Slab Decomposition



     bravais-lattice index     =            4
     lattice parameter (alat)  =       4.6561  a.u.
     unit-cell volume          =     532.1899 (a.u.)^3
     number of atoms/cell      =            6
     number of atomic types    =            1
     number of electrons       =        24.00
     number of Kohn-Sham states=           16
     kinetic-energy cutoff     =      70.0000  Ry
     charge density cutoff     =     280.0000  Ry
     scf convergence threshold =      1.0E-08
     mixing beta               =       0.7000
     number of iterations used =            8  plain     mixing
     Exchange-correlation= PBE
                           (   1   4   3   4   0   0   0)

     celldm(1)=   4.656107  celldm(2)=   0.000000  celldm(3)=   6.087896
     celldm(4)=   0.000000  celldm(5)=   0.000000  celldm(6)=   0.000000

     crystal axes: (cart. coord. in units of alat)
               a(1) = (   1.000000   0.000000   0.000000 )  
               a(2) = (  -0.500000   0.866025   0.000000 )  
               a(3) = (   0.000000   0.000000   6.087896 )  

     reciprocal axes: (cart. coord. in units 2 pi/alat)
               b(1) = (  1.000000  0.577350 -0.000000 )  
               b(2) = (  0.000000  1.154701  0.000000 )  
               b(3) = (  0.000000 -0.000000  0.164260 )  


     PseudoPot. # 1 for C  read from file:
     /run/media/rfa/SATA/Skripsi/DFT/Graphene-copy/pseudo/C.pbe-n-rrkjus_psl.0.1.UPF
     MD5 check sum: 96a6a315177d77e6c95bf6fd3870f9e3
     Pseudo is Ultrasoft + core correction, Zval =  4.0
     Generated using &quot;atomic&quot; code by A. Dal Corso  v.6.3MaX
     Using radial grid of 1073 points,  4 beta functions with: 
                l(1) =   0
                l(2) =   0
                l(3) =   1
                l(4) =   1
     Q(r) pseudized with 0 coefficients 


     atomic species   valence    mass     pseudopotential
     C                 4.00    12.01070     C ( 1.00)

      6 Sym. Ops. (no inversion) found



   Cartesian axes

     site n.     atom                  positions (alat units)
         1        C      tau(   1) = (   0.0000000   0.5773503   3.0439478  )
         2        C      tau(   2) = (   0.5000000   0.2886751   3.0439478  )
         3        C      tau(   3) = (   0.0000000   0.0000000   3.2468777  )
         4        C      tau(   4) = (   0.0000000   0.5773503   3.2468777  )
         5        C      tau(   5) = (   0.5000000   0.2886751   3.4498075  )
         6        C      tau(   6) = (   0.0000000   0.0000000   3.4498075  )

     number of k points=    19  Marzari-Vanderbilt smearing, width (Ry)=  0.0200
                       cart. coord. in units 2pi/alat
        k(    1) = (   0.0000000   0.0000000   0.0000000), wk =   0.0138889
        k(    2) = (   0.0000000   0.0962250   0.0000000), wk =   0.0833333
        k(    3) = (   0.0000000   0.1924501   0.0000000), wk =   0.0833333
        k(    4) = (   0.0000000   0.2886751   0.0000000), wk =   0.0833333
        k(    5) = (   0.0000000   0.3849002   0.0000000), wk =   0.0833333
        k(    6) = (   0.0000000   0.4811252   0.0000000), wk =   0.0833333
        k(    7) = (   0.0000000  -0.5773503   0.0000000), wk =   0.0416667
        k(    8) = (   0.0833333   0.1443376   0.0000000), wk =   0.0833333
        k(    9) = (   0.0833333   0.2405626   0.0000000), wk =   0.1666667
        k(   10) = (   0.0833333   0.3367877   0.0000000), wk =   0.1666667
        k(   11) = (   0.0833333   0.4330127   0.0000000), wk =   0.1666667
        k(   12) = (   0.0833333   0.5292377   0.0000000), wk =   0.1666667
        k(   13) = (   0.1666667   0.2886751   0.0000000), wk =   0.0833333
        k(   14) = (   0.1666667   0.3849002   0.0000000), wk =   0.1666667
        k(   15) = (   0.1666667   0.4811252   0.0000000), wk =   0.1666667
        k(   16) = (   0.1666667   0.5773503   0.0000000), wk =   0.0833333
        k(   17) = (   0.2500000   0.4330127   0.0000000), wk =   0.0833333
        k(   18) = (   0.2500000   0.5292377   0.0000000), wk =   0.1666667
        k(   19) = (   0.3333333   0.5773503   0.0000000), wk =   0.0277778

     Dense  grid:    42223 G-vectors     FFT dimensions: (  25,  25, 160)

     Estimated max dynamical RAM per process >      13.61 MB

     Estimated total dynamical RAM >      95.24 MB

     Check: negative core charge=   -0.000004

     Initial potential from superposition of free atoms

     starting charge      23.9998, renormalised to      24.0000

     negative rho (up, down):  4.504E-05 0.000E+00
     Starting wfcs are   24 randomized atomic wfcs

     total cpu time spent up to now is        0.7 secs

     per-process dynamical memory:    14.7 Mb

     Self-consistent Calculation

     iteration #  1     ecut=    70.00 Ry     beta= 0.70
     Davidson diagonalization with overlap
     ethr =  1.00E-02,  avg # of iterations =  8.7

     negative rho (up, down):  7.392E-05 0.000E+00

     total cpu time spent up to now is        2.3 secs

     total energy              =     -41.35437879 Ry
     estimated scf accuracy    <      12.47595674 Ry

     iteration #  2     ecut=    70.00 Ry     beta= 0.70
     Davidson diagonalization with overlap
     ethr =  1.00E-02,  avg # of iterations = 10.8

     total cpu time spent up to now is        3.8 secs

     total energy              =     -40.49399888 Ry
     estimated scf accuracy    <      21.99333422 Ry

     iteration #  3     ecut=    70.00 Ry     beta= 0.70
     Davidson diagonalization with overlap
     ethr =  1.00E-02,  avg # of iterations =  7.9

     total cpu time spent up to now is        4.9 secs

     total energy              =     -46.22878092 Ry
     estimated scf accuracy    <       1.11677328 Ry

     iteration #  4     ecut=    70.00 Ry     beta= 0.70
     Davidson diagonalization with overlap
     ethr =  4.65E-03,  avg # of iterations =  5.0

     total cpu time spent up to now is        5.7 secs

     total energy              =     -46.50678627 Ry
     estimated scf accuracy    <       0.43124609 Ry

     iteration #  5     ecut=    70.00 Ry     beta= 0.70
     Davidson diagonalization with overlap
     ethr =  1.80E-03,  avg # of iterations =  4.7

     total cpu time spent up to now is        6.4 secs

     total energy              =     -46.53633488 Ry
     estimated scf accuracy    <       0.37970696 Ry

     iteration #  6     ecut=    70.00 Ry     beta= 0.70
     Davidson diagonalization with overlap
     ethr =  1.58E-03,  avg # of iterations =  1.5

     total cpu time spent up to now is        7.0 secs

     total energy              =     -46.52729590 Ry
     estimated scf accuracy    <       0.13512424 Ry

     iteration #  7     ecut=    70.00 Ry     beta= 0.70
     Davidson diagonalization with overlap
     ethr =  5.63E-04,  avg # of iterations =  7.5

     total cpu time spent up to now is        7.9 secs

     total energy              =     -46.56564469 Ry
     estimated scf accuracy    <       0.02346216 Ry

     iteration #  8     ecut=    70.00 Ry     beta= 0.70
     Davidson diagonalization with overlap
     ethr =  9.78E-05,  avg # of iterations = 10.3

     total cpu time spent up to now is        9.2 secs

     total energy              =     -46.58728508 Ry
     estimated scf accuracy    <       0.00799867 Ry

     iteration #  9     ecut=    70.00 Ry     beta= 0.70
     Davidson diagonalization with overlap
     c_bands:  1 eigenvalues not converged
     c_bands:  1 eigenvalues not converged
     ethr =  3.33E-05,  avg # of iterations =  8.2

     negative rho (up, down):  9.173E-06 0.000E+00

     total cpu time spent up to now is       10.2 secs

     total energy              =     -46.58663915 Ry
     estimated scf accuracy    <       0.00601843 Ry

     iteration # 10     ecut=    70.00 Ry     beta= 0.70
     Davidson diagonalization with overlap
     c_bands:  1 eigenvalues not converged
     ethr =  2.51E-05,  avg # of iterations =  9.9

     negative rho (up, down):  2.389E-05 0.000E+00

     total cpu time spent up to now is       11.2 secs

     total energy              =     -46.58714918 Ry
     estimated scf accuracy    <       0.00143348 Ry

     iteration # 11     ecut=    70.00 Ry     beta= 0.70
     Davidson diagonalization with overlap
     c_bands:  1 eigenvalues not converged
     ethr =  5.97E-06,  avg # of iterations = 10.9

     negative rho (up, down):  1.055E-04 0.000E+00

     total cpu time spent up to now is       12.4 secs

     total energy              =     -46.58780589 Ry
     estimated scf accuracy    <       0.00074226 Ry

     iteration # 12     ecut=    70.00 Ry     beta= 0.70
     Davidson diagonalization with overlap
     ethr =  3.09E-06,  avg # of iterations =  5.3

     negative rho (up, down):  1.429E-04 0.000E+00

     total cpu time spent up to now is       13.2 secs

     total energy              =     -46.58777064 Ry
     estimated scf accuracy    <       0.00030955 Ry

     iteration # 13     ecut=    70.00 Ry     beta= 0.70
     Davidson diagonalization with overlap
     ethr =  1.29E-06,  avg # of iterations =  5.6

     negative rho (up, down):  1.373E-04 0.000E+00

     total cpu time spent up to now is       14.1 secs

     total energy              =     -46.58795877 Ry
     estimated scf accuracy    <       0.00010559 Ry

     iteration # 14     ecut=    70.00 Ry     beta= 0.70
     Davidson diagonalization with overlap
     ethr =  4.40E-07,  avg # of iterations =  5.1

     negative rho (up, down):  1.326E-04 0.000E+00

     total cpu time spent up to now is       15.0 secs

     total energy              =     -46.58801327 Ry
     estimated scf accuracy    <       0.00000605 Ry

     iteration # 15     ecut=    70.00 Ry     beta= 0.70
     Davidson diagonalization with overlap
     ethr =  2.52E-08,  avg # of iterations = 11.1

     negative rho (up, down):  1.331E-04 0.000E+00

     total cpu time spent up to now is       16.8 secs

     total energy              =     -46.58803587 Ry
     estimated scf accuracy    <       0.00000252 Ry

     iteration # 16     ecut=    70.00 Ry     beta= 0.70
     Davidson diagonalization with overlap
     ethr =  1.05E-08,  avg # of iterations =  2.5

     negative rho (up, down):  1.336E-04 0.000E+00

     total cpu time spent up to now is       17.4 secs

     total energy              =     -46.58803522 Ry
     estimated scf accuracy    <       0.00000291 Ry

     iteration # 17     ecut=    70.00 Ry     beta= 0.70
     Davidson diagonalization with overlap
     ethr =  1.05E-08,  avg # of iterations =  2.4

     negative rho (up, down):  1.364E-04 0.000E+00

     total cpu time spent up to now is       18.0 secs

     total energy              =     -46.58803530 Ry
     estimated scf accuracy    <       0.00000099 Ry

     iteration # 18     ecut=    70.00 Ry     beta= 0.70
     Davidson diagonalization with overlap
     ethr =  4.14E-09,  avg # of iterations =  5.1

     negative rho (up, down):  1.377E-04 0.000E+00

     total cpu time spent up to now is       18.8 secs

     total energy              =     -46.58803543 Ry
     estimated scf accuracy    <       0.00000130 Ry

     iteration # 19     ecut=    70.00 Ry     beta= 0.70
     Davidson diagonalization with overlap
     ethr =  4.14E-09,  avg # of iterations =  1.6

     negative rho (up, down):  1.379E-04 0.000E+00

     total cpu time spent up to now is       19.3 secs

     total energy              =     -46.58803549 Ry
     estimated scf accuracy    <       0.00000016 Ry

     iteration # 20     ecut=    70.00 Ry     beta= 0.70
     Davidson diagonalization with overlap
     ethr =  6.64E-10,  avg # of iterations =  6.7

     negative rho (up, down):  1.376E-04 0.000E+00

     total cpu time spent up to now is       20.4 secs

     total energy              =     -46.58803566 Ry
     estimated scf accuracy    <       0.00000007 Ry

     iteration # 21     ecut=    70.00 Ry     beta= 0.70
     Davidson diagonalization with overlap
     ethr =  2.88E-10,  avg # of iterations =  3.9

     negative rho (up, down):  1.375E-04 0.000E+00

     total cpu time spent up to now is       21.1 secs

     total energy              =     -46.58803568 Ry
     estimated scf accuracy    <       0.00000001 Ry

     iteration # 22     ecut=    70.00 Ry     beta= 0.70
     Davidson diagonalization with overlap
     ethr =  5.35E-11,  avg # of iterations =  7.3

     negative rho (up, down):  1.376E-04 0.000E+00

     total cpu time spent up to now is       22.2 secs

     End of self-consistent calculation

          k = 0.0000 0.0000 0.0000 (  5283 PWs)   bands (ev):

   -33.6735 -24.2710 -24.2710 -20.4484 -20.1275 -20.1275 -11.1669  -2.9900
    -0.0163   2.3320   2.3320   2.6562   2.6562   3.3066   5.7647   6.0107

          k = 0.0000 0.0962 0.0000 (  5259 PWs)   bands (ev):

   -33.6640 -25.0619 -25.0507 -20.2596 -19.1016 -19.0503 -10.9882  -3.8154
    -0.2505   0.7979   1.0695   2.9561   4.4166   4.5298   5.9874   6.2536

          k = 0.0000 0.1925 0.0000 (  5241 PWs)   bands (ev):

   -33.6437 -26.3960 -26.3790 -19.7465 -17.0679 -16.8735 -10.4725  -5.7233
    -1.0374  -0.4568   0.8221   2.4080   5.5724   6.2114   6.6555   6.8413

          k = 0.0000 0.2887 0.0000 (  5255 PWs)   bands (ev):

   -33.6319 -27.6077 -27.5044 -18.9226 -14.8918 -14.5004  -9.8606  -7.5582
    -1.6709  -1.0842   0.6575   1.5991   5.0106   7.2145   7.6143   7.8235

          k = 0.0000 0.3849 0.0000 (  5259 PWs)   bands (ev):

   -33.6433 -28.5195 -28.2903 -17.8305 -13.0379 -12.5890 -10.5612  -7.2554
    -1.9683  -0.8431   0.1993   0.6041   3.8093   6.1102   6.7208   9.0928

          k = 0.0000 0.4811 0.0000 (  5274 PWs)   bands (ev):

   -33.6696 -29.0796 -28.7329 -16.5636 -12.9180 -11.8678 -10.5592  -5.3984
    -1.8905  -1.1252   0.2792   0.3972   2.8324   3.8179   4.9729  10.9080

          k = 0.0000-0.5774 0.0000 (  5280 PWs)   bands (ev):

   -33.6834 -29.2681 -28.8727 -15.6614 -13.8906 -11.4882 -10.1952  -3.6729
    -2.8636  -1.4160   0.9126   1.2622   1.9192   3.2330   3.2644  12.5731

          k = 0.0833 0.1443 0.0000 (  5259 PWs)   bands (ev):

   -33.6493 -26.0476 -26.0214 -19.9136 -17.6339 -17.5160 -10.6394  -5.0889
    -1.5172   0.6578   0.6664   3.1304   4.2696   6.1480   6.5058   6.6735

          k = 0.0833 0.2406 0.0000 (  5244 PWs)   bands (ev):

   -33.6345 -27.2017 -27.1536 -19.2369 -15.6191 -15.3662 -10.0202  -6.8350
    -2.7644  -0.0397   0.8251   2.6967   4.9794   6.1246   7.3963   7.4293

          k = 0.0833 0.3368 0.0000 (  5259 PWs)   bands (ev):

   -33.6383 -28.1879 -28.0493 -18.2631 -13.6633 -13.2812  -9.9521  -7.6544
    -3.1211  -0.7824   0.8544   1.7780   4.2319   6.5939   7.4099   8.4272

          k = 0.0833 0.4330 0.0000 (  5262 PWs)   bands (ev):

   -33.6641 -28.8830 -28.6236 -17.0532 -12.4650 -12.1145 -10.7716  -6.2997
    -2.5555  -1.3117   0.0779   1.4179   3.2424   4.6764   6.3666   9.9325

          k = 0.0833 0.5292 0.0000 (  5288 PWs)   bands (ev):

   -33.6899 -29.2391 -28.8936 -15.7838 -13.5289 -11.4986 -10.3586  -4.3163
    -2.3737  -1.5766  -0.2501   1.6181   1.9919   3.4574   4.8934  11.8489

          k = 0.1667 0.2887 0.0000 (  5266 PWs)   bands (ev):

   -33.6385 -28.0353 -27.9776 -18.3953 -13.8549 -13.6469  -9.6955  -7.5714
    -3.9968  -0.6580   0.9812   3.2140   4.5154   5.5767   7.6734   8.2916

          k = 0.1667 0.3849 0.0000 (  5269 PWs)   bands (ev):

   -33.6656 -28.7210 -28.5971 -17.2697 -12.4817 -12.2734 -10.4601  -6.7887
    -3.8562  -1.4598   0.7663   2.0499   4.0014   5.4920   6.8167   9.2234

          k = 0.1667 0.4811 0.0000 (  5268 PWs)   bands (ev):

   -33.7027 -29.1659 -28.9505 -15.9482 -12.7620 -11.5878 -10.6956  -5.0672
    -2.6975  -1.8522  -0.3820   1.5009   2.3237   4.5771   7.0530  10.5098

          k = 0.1667 0.5774 0.0000 (  5260 PWs)   bands (ev):

   -33.7202 -29.3188 -29.0626 -14.9083 -13.7489 -11.4577 -10.4500  -3.2662
    -3.2652  -1.5209  -0.0234   0.0712   1.5639   4.4732   6.7064  11.8160

          k = 0.2500 0.4330 0.0000 (  5254 PWs)   bands (ev):

   -33.7090 -29.1053 -29.0031 -16.0073 -12.2201 -11.7403 -10.9182  -5.3548
    -3.1676  -2.0024   0.5171   0.7298   2.5328   5.6962   7.7129   9.9685

          k = 0.2500 0.5292 0.0000 (  5276 PWs)   bands (ev):

   -33.7432 -29.3158 -29.1974 -14.6088 -13.0269 -12.0158 -10.6407  -3.6487
    -2.4505  -1.5651  -0.7317   0.2916   0.6363   5.9857   8.6695   9.8767

          k = 0.3333 0.5774 0.0000 (  5268 PWs)   bands (ev):

   -33.7607 -29.3242 -29.3242 -13.2667 -13.2667 -12.9683 -10.6324  -2.1392
    -2.1392  -2.0782  -0.5883  -0.5882  -0.3056   7.7943   7.7943  10.1215

     the Fermi energy is     2.2403 ev

!    total energy              =     -46.58803569 Ry
     estimated scf accuracy    <          2.6E-09 Ry
     smearing contrib. (-TS)   =       0.00045136 Ry
     internal energy E=F+TS    =     -46.58848705 Ry

     The total energy is F=E-TS. E is the sum of the following terms:
     one-electron contribution =   -1330.18705787 Ry
     hartree contribution      =     672.18339805 Ry
     xc contribution           =     -31.88871567 Ry
     ewald contribution        =     643.30388843 Ry

     convergence has been achieved in  22 iterations

     negative rho (up, down):  1.376E-04 0.000E+00

     Forces acting on atoms (cartesian axes, Ry/au):

     atom    1 type  1   force =     0.00000000   -0.00000000  -24.40139087
     atom    2 type  1   force =     0.00000000    0.00000000   -2.86158429
     atom    3 type  1   force =     0.00000000    0.00000000  -23.49329812
     atom    4 type  1   force =     0.00000000   -0.00000000   23.49329724
     atom    5 type  1   force =     0.00000000    0.00000000    2.86160378
     atom    6 type  1   force =     0.00000000   -0.00000000   24.40137226

     Total force =    48.073926     Total SCF correction =     0.000112


     Computing stress (Cartesian axis) and pressure


     negative rho (up, down):  1.376E-04 0.000E+00
          total   stress  (Ry/bohr**3)                   (kbar)     P=     6442.06
   0.01731122   0.00000000   0.00000000         2546.57        0.00        0.00
   0.00000000   0.01731122   0.00000000            0.00     2546.57        0.00
   0.00000000   0.00000000   0.09675419            0.00        0.00    14233.03


     Writing all to output data dir /run/media/rfa/SATA/Skripsi/DFT/Graphene-copy/tmp/gr-abc-3L.save/ :
     XML data file, charge density, pseudopotentials, collected wavefunctions

     init_run     :      0.67s CPU      0.69s WALL (       1 calls)
     electrons    :     39.79s CPU     21.50s WALL (       1 calls)
     forces       :      0.19s CPU      0.11s WALL (       1 calls)
     stress       :      0.65s CPU      0.37s WALL (       1 calls)

     Called by init_run:
     wfcinit      :      0.41s CPU      0.25s WALL (       1 calls)
     potinit      :      0.01s CPU      0.01s WALL (       1 calls)
     hinit0       :      0.21s CPU      0.38s WALL (       1 calls)

     Called by electrons:
     c_bands      :     35.29s CPU     18.88s WALL (      22 calls)
     sum_band     :      3.86s CPU      2.07s WALL (      22 calls)
     v_of_rho     :      0.20s CPU      0.21s WALL (      23 calls)
     newd         :      0.23s CPU      0.20s WALL (      23 calls)
     mix_rho      :      0.18s CPU      0.11s WALL (      22 calls)

     Called by c_bands:
     init_us_2    :      1.01s CPU      0.50s WALL (     893 calls)
     cegterg      :     33.95s CPU     18.16s WALL (     418 calls)

     Called by *egterg:
     cdiaghg      :      2.43s CPU      1.25s WALL (    3113 calls)
     h_psi        :     23.59s CPU     12.82s WALL (    3132 calls)
     s_psi        :      1.37s CPU      0.73s WALL (    3132 calls)
     g_psi        :      0.27s CPU      0.13s WALL (    2695 calls)

     Called by h_psi:
     h_psi:calbec :      3.63s CPU      1.92s WALL (    3132 calls)
     vloc_psi     :     17.47s CPU      9.61s WALL (    3132 calls)
     add_vuspsi   :      2.10s CPU      1.08s WALL (    3132 calls)

     General routines
     calbec       :      4.41s CPU      2.31s WALL (    3873 calls)
     fft          :      0.27s CPU      0.45s WALL (     278 calls)
     ffts         :      0.01s CPU      0.01s WALL (      22 calls)
     fftw         :     15.94s CPU      8.86s WALL (   58384 calls)

     Parallel routines

     PWSCF        :     41.41s CPU     23.16s WALL


   This run was terminated on:  16: 8:32  16Apr2025            

=------------------------------------------------------------------------------=
   JOB DONE.
=------------------------------------------------------------------------------=
