
     Program PWSCF v.7.4.1 starts on 16Apr2025 at 16: 7:43 

     This program is part of the open-source Quantum ESPRESSO suite
     for quantum simulation of materials; please cite
         "P. Giannozzi et al., J. Phys.:Condens. Matter 21 395502 (2009);
         "P. Giannozzi et al., J. Phys.:Condens. Matter 29 465901 (2017);
         "P. Giannozzi et al., J. Chem. Phys. 152 154105 (2020);
          URL http://www.quantum-espresso.org", 
     in publications or presentations arising from this work. More details at
     http://www.quantum-espresso.org/quote

     Parallel version (MPI), running on     7 processors

     MPI processes distributed on     1 nodes
     13229 MiB available memory on the printing compute node when the environment starts

     Waiting for input...
     Reading input from standard input

     Current dimensions of program PWSCF are:
     Max number of different atomic species (ntypx) = 10
     Max number of k-points (npk) =  40000
     Max angular momentum in pseudopotentials (lmaxx) =  4

     R & G space division:  proc/nbgrp/npool/nimage =       7
     Subspace diagonalization in iterative solution of the eigenvalue problem:
     a serial algorithm will be used


     Parallelization info
     --------------------
     sticks:   dense  smooth     PW     G-vecs:    dense   smooth      PW
     Min          54      54     17                 5366     5366     925
     Max          55      55     18                 5395     5395     942
     Sum         379     379    121                37615    37615    6525

     Using Slab Decomposition



     bravais-lattice index     =            4
     lattice parameter (alat)  =       4.6561  a.u.
     unit-cell volume          =     532.1899 (a.u.)^3
     number of atoms/cell      =            6
     number of atomic types    =            1
     number of electrons       =        24.00
     number of Kohn-Sham states=           16
     kinetic-energy cutoff     =      65.0000  Ry
     charge density cutoff     =     260.0000  Ry
     scf convergence threshold =      1.0E-08
     mixing beta               =       0.7000
     number of iterations used =            8  plain     mixing
     Exchange-correlation= PBE
                           (   1   4   3   4   0   0   0)

     celldm(1)=   4.656107  celldm(2)=   0.000000  celldm(3)=   6.087896
     celldm(4)=   0.000000  celldm(5)=   0.000000  celldm(6)=   0.000000

     crystal axes: (cart. coord. in units of alat)
               a(1) = (   1.000000   0.000000   0.000000 )  
               a(2) = (  -0.500000   0.866025   0.000000 )  
               a(3) = (   0.000000   0.000000   6.087896 )  

     reciprocal axes: (cart. coord. in units 2 pi/alat)
               b(1) = (  1.000000  0.577350 -0.000000 )  
               b(2) = (  0.000000  1.154701  0.000000 )  
               b(3) = (  0.000000 -0.000000  0.164260 )  


     PseudoPot. # 1 for C  read from file:
     /run/media/rfa/SATA/Skripsi/DFT/Graphene-copy/pseudo/C.pbe-n-rrkjus_psl.0.1.UPF
     MD5 check sum: 96a6a315177d77e6c95bf6fd3870f9e3
     Pseudo is Ultrasoft + core correction, Zval =  4.0
     Generated using &quot;atomic&quot; code by A. Dal Corso  v.6.3MaX
     Using radial grid of 1073 points,  4 beta functions with: 
                l(1) =   0
                l(2) =   0
                l(3) =   1
                l(4) =   1
     Q(r) pseudized with 0 coefficients 


     atomic species   valence    mass     pseudopotential
     C                 4.00    12.01070     C ( 1.00)

      6 Sym. Ops. (no inversion) found



   Cartesian axes

     site n.     atom                  positions (alat units)
         1        C      tau(   1) = (   0.0000000   0.5773503   3.0439478  )
         2        C      tau(   2) = (   0.5000000   0.2886751   3.0439478  )
         3        C      tau(   3) = (   0.0000000   0.0000000   3.2468777  )
         4        C      tau(   4) = (   0.0000000   0.5773503   3.2468777  )
         5        C      tau(   5) = (   0.5000000   0.2886751   3.4498075  )
         6        C      tau(   6) = (   0.0000000   0.0000000   3.4498075  )

     number of k points=    19  Marzari-Vanderbilt smearing, width (Ry)=  0.0200
                       cart. coord. in units 2pi/alat
        k(    1) = (   0.0000000   0.0000000   0.0000000), wk =   0.0138889
        k(    2) = (   0.0000000   0.0962250   0.0000000), wk =   0.0833333
        k(    3) = (   0.0000000   0.1924501   0.0000000), wk =   0.0833333
        k(    4) = (   0.0000000   0.2886751   0.0000000), wk =   0.0833333
        k(    5) = (   0.0000000   0.3849002   0.0000000), wk =   0.0833333
        k(    6) = (   0.0000000   0.4811252   0.0000000), wk =   0.0833333
        k(    7) = (   0.0000000  -0.5773503   0.0000000), wk =   0.0416667
        k(    8) = (   0.0833333   0.1443376   0.0000000), wk =   0.0833333
        k(    9) = (   0.0833333   0.2405626   0.0000000), wk =   0.1666667
        k(   10) = (   0.0833333   0.3367877   0.0000000), wk =   0.1666667
        k(   11) = (   0.0833333   0.4330127   0.0000000), wk =   0.1666667
        k(   12) = (   0.0833333   0.5292377   0.0000000), wk =   0.1666667
        k(   13) = (   0.1666667   0.2886751   0.0000000), wk =   0.0833333
        k(   14) = (   0.1666667   0.3849002   0.0000000), wk =   0.1666667
        k(   15) = (   0.1666667   0.4811252   0.0000000), wk =   0.1666667
        k(   16) = (   0.1666667   0.5773503   0.0000000), wk =   0.0833333
        k(   17) = (   0.2500000   0.4330127   0.0000000), wk =   0.0833333
        k(   18) = (   0.2500000   0.5292377   0.0000000), wk =   0.1666667
        k(   19) = (   0.3333333   0.5773503   0.0000000), wk =   0.0277778

     Dense  grid:    37615 G-vectors     FFT dimensions: (  24,  24, 150)

     Estimated max dynamical RAM per process >      12.13 MB

     Estimated total dynamical RAM >      84.91 MB

     Check: negative core charge=   -0.000005

     Initial potential from superposition of free atoms

     starting charge      23.9998, renormalised to      24.0000

     negative rho (up, down):  1.574E-05 0.000E+00
     Starting wfcs are   24 randomized atomic wfcs

     total cpu time spent up to now is        0.8 secs

     per-process dynamical memory:    14.0 Mb

     Self-consistent Calculation

     iteration #  1     ecut=    65.00 Ry     beta= 0.70
     Davidson diagonalization with overlap
     ethr =  1.00E-02,  avg # of iterations =  8.6

     negative rho (up, down):  5.844E-04 0.000E+00

     total cpu time spent up to now is        2.4 secs

     total energy              =     -41.38389966 Ry
     estimated scf accuracy    <      12.45783564 Ry

     iteration #  2     ecut=    65.00 Ry     beta= 0.70
     Davidson diagonalization with overlap
     c_bands:  1 eigenvalues not converged
     ethr =  1.00E-02,  avg # of iterations = 11.4

     total cpu time spent up to now is        3.9 secs

     total energy              =     -40.07515860 Ry
     estimated scf accuracy    <      23.38338050 Ry

     iteration #  3     ecut=    65.00 Ry     beta= 0.70
     Davidson diagonalization with overlap
     c_bands:  1 eigenvalues not converged
     ethr =  1.00E-02,  avg # of iterations =  9.7

     total cpu time spent up to now is        5.1 secs

     total energy              =     -46.31808233 Ry
     estimated scf accuracy    <       1.15684651 Ry

     iteration #  4     ecut=    65.00 Ry     beta= 0.70
     Davidson diagonalization with overlap
     ethr =  4.82E-03,  avg # of iterations =  4.6

     total cpu time spent up to now is        5.8 secs

     total energy              =     -46.50548470 Ry
     estimated scf accuracy    <       0.44091160 Ry

     iteration #  5     ecut=    65.00 Ry     beta= 0.70
     Davidson diagonalization with overlap
     ethr =  1.84E-03,  avg # of iterations =  3.9

     total cpu time spent up to now is        6.5 secs

     total energy              =     -46.54064363 Ry
     estimated scf accuracy    <       0.22998876 Ry

     iteration #  6     ecut=    65.00 Ry     beta= 0.70
     Davidson diagonalization with overlap
     ethr =  9.58E-04,  avg # of iterations =  3.6

     total cpu time spent up to now is        7.2 secs

     total energy              =     -46.53804266 Ry
     estimated scf accuracy    <       0.14592761 Ry

     iteration #  7     ecut=    65.00 Ry     beta= 0.70
     Davidson diagonalization with overlap
     ethr =  6.08E-04,  avg # of iterations =  5.2

     negative rho (up, down):  5.137E-07 0.000E+00

     total cpu time spent up to now is        7.9 secs

     total energy              =     -46.55296476 Ry
     estimated scf accuracy    <       0.02973223 Ry

     iteration #  8     ecut=    65.00 Ry     beta= 0.70
     Davidson diagonalization with overlap
     c_bands:  1 eigenvalues not converged
     ethr =  1.24E-04,  avg # of iterations = 10.8

     negative rho (up, down):  6.006E-07 0.000E+00

     total cpu time spent up to now is        9.2 secs

     total energy              =     -46.58141591 Ry
     estimated scf accuracy    <       0.00473537 Ry

     iteration #  9     ecut=    65.00 Ry     beta= 0.70
     Davidson diagonalization with overlap
     c_bands:  1 eigenvalues not converged
     c_bands:  1 eigenvalues not converged
     ethr =  1.97E-05,  avg # of iterations = 12.6

     negative rho (up, down):  1.522E-07 0.000E+00

     total cpu time spent up to now is       10.7 secs

     total energy              =     -46.58868951 Ry
     estimated scf accuracy    <       0.00447426 Ry

     iteration # 10     ecut=    65.00 Ry     beta= 0.70
     Davidson diagonalization with overlap
     ethr =  1.86E-05,  avg # of iterations =  4.3

     negative rho (up, down):  1.470E-04 0.000E+00

     total cpu time spent up to now is       11.3 secs

     total energy              =     -46.58294364 Ry
     estimated scf accuracy    <       0.01280456 Ry

     iteration # 11     ecut=    65.00 Ry     beta= 0.70
     Davidson diagonalization with overlap
     ethr =  1.86E-05,  avg # of iterations =  7.7

     negative rho (up, down):  5.896E-04 0.000E+00

     total cpu time spent up to now is       12.2 secs

     total energy              =     -46.58608330 Ry
     estimated scf accuracy    <       0.00469745 Ry

     iteration # 12     ecut=    65.00 Ry     beta= 0.70
     Davidson diagonalization with overlap
     ethr =  1.86E-05,  avg # of iterations =  2.8

     negative rho (up, down):  6.061E-04 0.000E+00

     total cpu time spent up to now is       12.8 secs

     total energy              =     -46.58495623 Ry
     estimated scf accuracy    <       0.00457269 Ry

     iteration # 13     ecut=    65.00 Ry     beta= 0.70
     Davidson diagonalization with overlap
     ethr =  1.86E-05,  avg # of iterations =  1.3

     negative rho (up, down):  6.022E-04 0.000E+00

     total cpu time spent up to now is       13.3 secs

     total energy              =     -46.58420032 Ry
     estimated scf accuracy    <       0.00197144 Ry

     iteration # 14     ecut=    65.00 Ry     beta= 0.70
     Davidson diagonalization with overlap
     ethr =  8.21E-06,  avg # of iterations =  3.3

     negative rho (up, down):  5.582E-04 0.000E+00

     total cpu time spent up to now is       13.9 secs

     total energy              =     -46.58424580 Ry
     estimated scf accuracy    <       0.00030078 Ry

     iteration # 15     ecut=    65.00 Ry     beta= 0.70
     Davidson diagonalization with overlap
     c_bands:  1 eigenvalues not converged
     c_bands:  2 eigenvalues not converged
     ethr =  1.25E-06,  avg # of iterations = 13.2

     negative rho (up, down):  5.564E-04 0.000E+00

     total cpu time spent up to now is       15.4 secs

     total energy              =     -46.58453416 Ry
     estimated scf accuracy    <       0.00001152 Ry

     iteration # 16     ecut=    65.00 Ry     beta= 0.70
     Davidson diagonalization with overlap
     ethr =  4.80E-08,  avg # of iterations = 10.7

     negative rho (up, down):  5.410E-04 0.000E+00

     total cpu time spent up to now is       17.1 secs

     total energy              =     -46.58458496 Ry
     estimated scf accuracy    <       0.00002191 Ry

     iteration # 17     ecut=    65.00 Ry     beta= 0.70
     Davidson diagonalization with overlap
     ethr =  4.80E-08,  avg # of iterations =  2.1

     negative rho (up, down):  5.538E-04 0.000E+00

     total cpu time spent up to now is       17.7 secs

     total energy              =     -46.58458088 Ry
     estimated scf accuracy    <       0.00003003 Ry

     iteration # 18     ecut=    65.00 Ry     beta= 0.70
     Davidson diagonalization with overlap
     ethr =  4.80E-08,  avg # of iterations =  1.3

     negative rho (up, down):  5.713E-04 0.000E+00

     total cpu time spent up to now is       18.2 secs

     total energy              =     -46.58457479 Ry
     estimated scf accuracy    <       0.00001868 Ry

     iteration # 19     ecut=    65.00 Ry     beta= 0.70
     Davidson diagonalization with overlap
     ethr =  4.80E-08,  avg # of iterations =  1.0

     negative rho (up, down):  5.707E-04 0.000E+00

     total cpu time spent up to now is       18.7 secs

     total energy              =     -46.58457525 Ry
     estimated scf accuracy    <       0.00000585 Ry

     iteration # 20     ecut=    65.00 Ry     beta= 0.70
     Davidson diagonalization with overlap
     ethr =  2.44E-08,  avg # of iterations =  1.3

     negative rho (up, down):  5.713E-04 0.000E+00

     total cpu time spent up to now is       19.2 secs

     total energy              =     -46.58457448 Ry
     estimated scf accuracy    <       0.00000478 Ry

     iteration # 21     ecut=    65.00 Ry     beta= 0.70
     Davidson diagonalization with overlap
     ethr =  1.99E-08,  avg # of iterations =  1.4

     negative rho (up, down):  5.719E-04 0.000E+00

     total cpu time spent up to now is       19.7 secs

     total energy              =     -46.58457376 Ry
     estimated scf accuracy    <       0.00000249 Ry

     iteration # 22     ecut=    65.00 Ry     beta= 0.70
     Davidson diagonalization with overlap
     ethr =  1.04E-08,  avg # of iterations =  4.7

     negative rho (up, down):  5.744E-04 0.000E+00

     total cpu time spent up to now is       20.5 secs

     total energy              =     -46.58457478 Ry
     estimated scf accuracy    <       0.00000016 Ry

     iteration # 23     ecut=    65.00 Ry     beta= 0.70
     Davidson diagonalization with overlap
     ethr =  6.48E-10,  avg # of iterations = 11.7

     negative rho (up, down):  5.737E-04 0.000E+00

     total cpu time spent up to now is       22.4 secs

     total energy              =     -46.58457515 Ry
     estimated scf accuracy    <       0.00000050 Ry

     iteration # 24     ecut=    65.00 Ry     beta= 0.70
     Davidson diagonalization with overlap
     ethr =  6.48E-10,  avg # of iterations =  1.5

     negative rho (up, down):  5.734E-04 0.000E+00

     total cpu time spent up to now is       22.9 secs

     total energy              =     -46.58457513 Ry
     estimated scf accuracy    <       0.00000010 Ry

     iteration # 25     ecut=    65.00 Ry     beta= 0.70
     Davidson diagonalization with overlap
     ethr =  4.09E-10,  avg # of iterations =  4.9

     negative rho (up, down):  5.735E-04 0.000E+00

     total cpu time spent up to now is       23.7 secs

     total energy              =     -46.58457518 Ry
     estimated scf accuracy    <       0.00000003 Ry

     iteration # 26     ecut=    65.00 Ry     beta= 0.70
     Davidson diagonalization with overlap
     ethr =  1.40E-10,  avg # of iterations =  3.5

     negative rho (up, down):  5.738E-04 0.000E+00

     total cpu time spent up to now is       24.4 secs

     End of self-consistent calculation

          k = 0.0000 0.0000 0.0000 (  4651 PWs)   bands (ev):

   -33.6762 -24.2738 -24.2738 -20.4502 -20.1301 -20.1301 -11.1688  -2.9907
    -0.0210   2.3296   2.3296   2.6539   2.6539   3.3030   5.6585   5.9546

          k = 0.0000 0.0962 0.0000 (  4651 PWs)   bands (ev):

   -33.6668 -25.0646 -25.0534 -20.2611 -19.1040 -19.0526 -10.9899  -3.8152
    -0.2541   0.7957   1.0659   2.9533   4.4144   4.5291   5.8823   6.1888

          k = 0.0000 0.1925 0.0000 (  4667 PWs)   bands (ev):

   -33.6465 -26.3989 -26.3816 -19.7480 -17.0702 -16.8764 -10.4744  -5.7233
    -1.0396  -0.4590   0.8170   2.4055   5.5720   6.2092   6.5590   6.7733

          k = 0.0000 0.2887 0.0000 (  4686 PWs)   bands (ev):

   -33.6348 -27.6105 -27.5071 -18.9240 -14.8943 -14.5031  -9.8630  -7.5582
    -1.6729  -1.0864   0.6529   1.5970   5.0089   7.2125   7.5735   7.7206

          k = 0.0000 0.3849 0.0000 (  4690 PWs)   bands (ev):

   -33.6462 -28.5222 -28.2930 -17.8319 -13.0404 -12.5916 -10.5632  -7.2561
    -1.9705  -0.8453   0.1981   0.6000   3.8064   6.1079   6.7187   9.0519

          k = 0.0000 0.4811 0.0000 (  4700 PWs)   bands (ev):

   -33.6724 -29.0823 -28.7357 -16.5649 -12.9199 -11.8701 -10.5616  -5.3994
    -1.8927  -1.1259   0.2758   0.3950   2.8298   3.8147   4.9708  10.8725

          k = 0.0000-0.5774 0.0000 (  4724 PWs)   bands (ev):

   -33.6863 -29.2707 -28.8756 -15.6622 -13.8927 -11.4905 -10.1977  -3.6759
    -2.8624  -1.4190   0.9096   1.2604   1.9172   3.2306   3.2604  12.5571

          k = 0.0833 0.1443 0.0000 (  4666 PWs)   bands (ev):

   -33.6521 -26.0503 -26.0242 -19.9150 -17.6363 -17.5183 -10.6411  -5.0886
    -1.5192   0.6541   0.6617   3.1294   4.2681   6.1289   6.4174   6.6063

          k = 0.0833 0.2406 0.0000 (  4682 PWs)   bands (ev):

   -33.6374 -27.2045 -27.1562 -19.2383 -15.6215 -15.3690 -10.0223  -6.8347
    -2.7660  -0.0436   0.8201   2.6960   4.9791   6.1204   7.2898   7.3696

          k = 0.0833 0.3368 0.0000 (  4711 PWs)   bands (ev):

   -33.6413 -28.1906 -28.0521 -18.2646 -13.6660 -13.2839  -9.9544  -7.6547
    -3.1226  -0.7862   0.8494   1.7782   4.2293   6.5916   7.4072   8.3836

          k = 0.0833 0.4330 0.0000 (  4717 PWs)   bands (ev):

   -33.6669 -28.8857 -28.6264 -17.0547 -12.4674 -12.1170 -10.7738  -6.3006
    -2.5570  -1.3149   0.0749   1.4159   3.2395   4.6738   6.3644   9.9018

          k = 0.0833 0.5292 0.0000 (  4726 PWs)   bands (ev):

   -33.6928 -29.2417 -28.8966 -15.7850 -13.5309 -11.5012 -10.3611  -4.3177
    -2.3737  -1.5798  -0.2530   1.6156   1.9895   3.4542   4.8911  11.8291

          k = 0.1667 0.2887 0.0000 (  4706 PWs)   bands (ev):

   -33.6414 -28.0380 -27.9803 -18.3967 -13.8576 -13.6497  -9.6980  -7.5706
    -3.9985  -0.6620   0.9760   3.2150   4.5147   5.5733   7.6695   8.2469

          k = 0.1667 0.3849 0.0000 (  4727 PWs)   bands (ev):

   -33.6685 -28.7237 -28.6000 -17.2712 -12.4845 -12.2760 -10.4619  -6.7893
    -3.8580  -1.4634   0.7618   2.0487   3.9998   5.4895   6.8147   9.2007

          k = 0.1667 0.4811 0.0000 (  4736 PWs)   bands (ev):

   -33.7055 -29.1687 -28.9535 -15.9497 -12.7641 -11.5903 -10.6979  -5.0682
    -2.6991  -1.8551  -0.3850   1.4974   2.3216   4.5749   7.0509  10.5025

          k = 0.1667 0.5774 0.0000 (  4744 PWs)   bands (ev):

   -33.7230 -29.3216 -29.0657 -14.9091 -13.7511 -11.4601 -10.4524  -3.2678
    -3.2654  -1.5246  -0.0260   0.0694   1.5603   4.4711   6.7045  11.8121

          k = 0.2500 0.4330 0.0000 (  4736 PWs)   bands (ev):

   -33.7119 -29.1081 -29.0060 -16.0088 -12.2227 -11.7420 -10.9202  -5.3557
    -3.1695  -2.0055   0.5126   0.7279   2.5307   5.6942   7.7111   9.9613

          k = 0.2500 0.5292 0.0000 (  4754 PWs)   bands (ev):

   -33.7461 -29.3187 -29.2004 -14.6102 -13.0289 -12.0179 -10.6430  -3.6497
    -2.4525  -1.5675  -0.7347   0.2886   0.6337   5.9835   8.6678   9.8746

          k = 0.3333 0.5774 0.0000 (  4740 PWs)   bands (ev):

   -33.7635 -29.3272 -29.3272 -13.2678 -13.2677 -12.9711 -10.6346  -2.1403
    -2.1403  -2.0804  -0.5918  -0.5918  -0.3080   7.7921   7.7922  10.1199

     the Fermi energy is     2.2383 ev

!    total energy              =     -46.58457518 Ry
     estimated scf accuracy    <          5.1E-09 Ry
     smearing contrib. (-TS)   =       0.00044988 Ry
     internal energy E=F+TS    =     -46.58502507 Ry

     The total energy is F=E-TS. E is the sum of the following terms:
     one-electron contribution =   -1330.17570850 Ry
     hartree contribution      =     672.17512055 Ry
     xc contribution           =     -31.88832555 Ry
     ewald contribution        =     643.30388843 Ry

     convergence has been achieved in  26 iterations

     negative rho (up, down):  5.738E-04 0.000E+00

     Forces acting on atoms (cartesian axes, Ry/au):

     atom    1 type  1   force =     0.00000000   -0.00000000  -24.41293430
     atom    2 type  1   force =     0.00000000   -0.00000000   -2.86178136
     atom    3 type  1   force =     0.00000000    0.00000000  -23.50500272
     atom    4 type  1   force =     0.00000000   -0.00000000   23.50500296
     atom    5 type  1   force =     0.00000000    0.00000000    2.86179038
     atom    6 type  1   force =     0.00000000   -0.00000000   24.41292504

     Total force =    48.097112     Total SCF correction =     0.000126


     Computing stress (Cartesian axis) and pressure


     negative rho (up, down):  5.738E-04 0.000E+00
          total   stress  (Ry/bohr**3)                   (kbar)     P=     6437.34
   0.01728274  -0.00000000   0.00000000         2542.38       -0.00        0.00
  -0.00000000   0.01728274   0.00000000           -0.00     2542.38        0.00
   0.00000000  -0.00000000   0.09671504            0.00       -0.00    14227.27


     Writing all to output data dir /run/media/rfa/SATA/Skripsi/DFT/Graphene-copy/tmp/gr-abc-3L.save/ :
     XML data file, charge density, pseudopotentials, collected wavefunctions

     init_run     :      0.70s CPU      0.78s WALL (       1 calls)
     electrons    :     43.68s CPU     23.56s WALL (       1 calls)
     forces       :      0.16s CPU      0.09s WALL (       1 calls)
     stress       :      0.55s CPU      0.32s WALL (       1 calls)

     Called by init_run:
     wfcinit      :      0.40s CPU      0.25s WALL (       1 calls)
     potinit      :      0.01s CPU      0.01s WALL (       1 calls)
     hinit0       :      0.25s CPU      0.47s WALL (       1 calls)

     Called by electrons:
     c_bands      :     38.40s CPU     20.55s WALL (      26 calls)
     sum_band     :      4.59s CPU      2.45s WALL (      26 calls)
     v_of_rho     :      0.21s CPU      0.22s WALL (      27 calls)
     newd         :      0.24s CPU      0.21s WALL (      27 calls)
     mix_rho      :      0.20s CPU      0.12s WALL (      26 calls)

     Called by c_bands:
     init_us_2    :      0.96s CPU      0.50s WALL (    1045 calls)
     cegterg      :     36.96s CPU     19.78s WALL (     494 calls)

     Called by *egterg:
     cdiaghg      :      2.52s CPU      1.30s WALL (    3292 calls)
     h_psi        :     27.25s CPU     14.83s WALL (    3311 calls)
     s_psi        :      1.04s CPU      0.52s WALL (    3311 calls)
     g_psi        :      0.26s CPU      0.13s WALL (    2798 calls)

     Called by h_psi:
     h_psi:calbec :      3.31s CPU      1.86s WALL (    3311 calls)
     vloc_psi     :     21.86s CPU     11.87s WALL (    3311 calls)
     add_vuspsi   :      1.70s CPU      0.90s WALL (    3311 calls)

     General routines
     calbec       :      4.02s CPU      2.23s WALL (    4128 calls)
     fft          :      0.32s CPU      0.54s WALL (     322 calls)
     ffts         :      0.01s CPU      0.01s WALL (      26 calls)
     fftw         :     21.18s CPU     11.54s WALL (   65780 calls)

     Parallel routines

     PWSCF        :     45.21s CPU     25.17s WALL


   This run was terminated on:  16: 8: 8  16Apr2025            

=------------------------------------------------------------------------------=
   JOB DONE.
=------------------------------------------------------------------------------=
