
     Program PWSCF v.7.4.1 starts on 16Apr2025 at 16: 6:58 

     This program is part of the open-source Quantum ESPRESSO suite
     for quantum simulation of materials; please cite
         "P. Giannozzi et al., J. Phys.:Condens. Matter 21 395502 (2009);
         "P. Giannozzi et al., J. Phys.:Condens. Matter 29 465901 (2017);
         "P. Giannozzi et al., J. Chem. Phys. 152 154105 (2020);
          URL http://www.quantum-espresso.org", 
     in publications or presentations arising from this work. More details at
     http://www.quantum-espresso.org/quote

     Parallel version (MPI), running on     7 processors

     MPI processes distributed on     1 nodes
     13252 MiB available memory on the printing compute node when the environment starts

     Waiting for input...
     Reading input from standard input

     Current dimensions of program PWSCF are:
     Max number of different atomic species (ntypx) = 10
     Max number of k-points (npk) =  40000
     Max angular momentum in pseudopotentials (lmaxx) =  4

     R & G space division:  proc/nbgrp/npool/nimage =       7
     Subspace diagonalization in iterative solution of the eigenvalue problem:
     a serial algorithm will be used


     Parallelization info
     --------------------
     sticks:   dense  smooth     PW     G-vecs:    dense   smooth      PW
     Min          44      44     15                 4122     4122     733
     Max          45      45     16                 4159     4159     742
     Sum         313     313    109                29029    29029    5163

     Using Slab Decomposition



     bravais-lattice index     =            4
     lattice parameter (alat)  =       4.6561  a.u.
     unit-cell volume          =     532.1899 (a.u.)^3
     number of atoms/cell      =            6
     number of atomic types    =            1
     number of electrons       =        24.00
     number of Kohn-Sham states=           16
     kinetic-energy cutoff     =      55.0000  Ry
     charge density cutoff     =     220.0000  Ry
     scf convergence threshold =      1.0E-08
     mixing beta               =       0.7000
     number of iterations used =            8  plain     mixing
     Exchange-correlation= PBE
                           (   1   4   3   4   0   0   0)

     celldm(1)=   4.656107  celldm(2)=   0.000000  celldm(3)=   6.087896
     celldm(4)=   0.000000  celldm(5)=   0.000000  celldm(6)=   0.000000

     crystal axes: (cart. coord. in units of alat)
               a(1) = (   1.000000   0.000000   0.000000 )  
               a(2) = (  -0.500000   0.866025   0.000000 )  
               a(3) = (   0.000000   0.000000   6.087896 )  

     reciprocal axes: (cart. coord. in units 2 pi/alat)
               b(1) = (  1.000000  0.577350 -0.000000 )  
               b(2) = (  0.000000  1.154701  0.000000 )  
               b(3) = (  0.000000 -0.000000  0.164260 )  


     PseudoPot. # 1 for C  read from file:
     /run/media/rfa/SATA/Skripsi/DFT/Graphene-copy/pseudo/C.pbe-n-rrkjus_psl.0.1.UPF
     MD5 check sum: 96a6a315177d77e6c95bf6fd3870f9e3
     Pseudo is Ultrasoft + core correction, Zval =  4.0
     Generated using &quot;atomic&quot; code by A. Dal Corso  v.6.3MaX
     Using radial grid of 1073 points,  4 beta functions with: 
                l(1) =   0
                l(2) =   0
                l(3) =   1
                l(4) =   1
     Q(r) pseudized with 0 coefficients 


     atomic species   valence    mass     pseudopotential
     C                 4.00    12.01070     C ( 1.00)

      6 Sym. Ops. (no inversion) found



   Cartesian axes

     site n.     atom                  positions (alat units)
         1        C      tau(   1) = (   0.0000000   0.5773503   3.0439478  )
         2        C      tau(   2) = (   0.5000000   0.2886751   3.0439478  )
         3        C      tau(   3) = (   0.0000000   0.0000000   3.2468777  )
         4        C      tau(   4) = (   0.0000000   0.5773503   3.2468777  )
         5        C      tau(   5) = (   0.5000000   0.2886751   3.4498075  )
         6        C      tau(   6) = (   0.0000000   0.0000000   3.4498075  )

     number of k points=    19  Marzari-Vanderbilt smearing, width (Ry)=  0.0200
                       cart. coord. in units 2pi/alat
        k(    1) = (   0.0000000   0.0000000   0.0000000), wk =   0.0138889
        k(    2) = (   0.0000000   0.0962250   0.0000000), wk =   0.0833333
        k(    3) = (   0.0000000   0.1924501   0.0000000), wk =   0.0833333
        k(    4) = (   0.0000000   0.2886751   0.0000000), wk =   0.0833333
        k(    5) = (   0.0000000   0.3849002   0.0000000), wk =   0.0833333
        k(    6) = (   0.0000000   0.4811252   0.0000000), wk =   0.0833333
        k(    7) = (   0.0000000  -0.5773503   0.0000000), wk =   0.0416667
        k(    8) = (   0.0833333   0.1443376   0.0000000), wk =   0.0833333
        k(    9) = (   0.0833333   0.2405626   0.0000000), wk =   0.1666667
        k(   10) = (   0.0833333   0.3367877   0.0000000), wk =   0.1666667
        k(   11) = (   0.0833333   0.4330127   0.0000000), wk =   0.1666667
        k(   12) = (   0.0833333   0.5292377   0.0000000), wk =   0.1666667
        k(   13) = (   0.1666667   0.2886751   0.0000000), wk =   0.0833333
        k(   14) = (   0.1666667   0.3849002   0.0000000), wk =   0.1666667
        k(   15) = (   0.1666667   0.4811252   0.0000000), wk =   0.1666667
        k(   16) = (   0.1666667   0.5773503   0.0000000), wk =   0.0833333
        k(   17) = (   0.2500000   0.4330127   0.0000000), wk =   0.0833333
        k(   18) = (   0.2500000   0.5292377   0.0000000), wk =   0.1666667
        k(   19) = (   0.3333333   0.5773503   0.0000000), wk =   0.0277778

     Dense  grid:    29029 G-vectors     FFT dimensions: (  24,  24, 135)

     Estimated max dynamical RAM per process >       9.53 MB

     Estimated total dynamical RAM >      66.72 MB

     Check: negative core charge=   -0.000002

     Initial potential from superposition of free atoms

     starting charge      23.9998, renormalised to      24.0000

     negative rho (up, down):  2.822E-04 0.000E+00
     Starting wfcs are   24 randomized atomic wfcs

     total cpu time spent up to now is        0.7 secs

     per-process dynamical memory:    12.4 Mb

     Self-consistent Calculation

     iteration #  1     ecut=    55.00 Ry     beta= 0.70
     Davidson diagonalization with overlap
     ethr =  1.00E-02,  avg # of iterations =  8.8

     negative rho (up, down):  1.476E-03 0.000E+00

     total cpu time spent up to now is        2.0 secs

     total energy              =     -41.36185225 Ry
     estimated scf accuracy    <      12.42252547 Ry

     iteration #  2     ecut=    55.00 Ry     beta= 0.70
     Davidson diagonalization with overlap
     c_bands:  2 eigenvalues not converged
     ethr =  1.00E-02,  avg # of iterations = 12.2

     total cpu time spent up to now is        3.3 secs

     total energy              =     -39.39820113 Ry
     estimated scf accuracy    <      25.68523457 Ry

     iteration #  3     ecut=    55.00 Ry     beta= 0.70
     Davidson diagonalization with overlap
     c_bands:  2 eigenvalues not converged
     ethr =  1.00E-02,  avg # of iterations =  9.3

     total cpu time spent up to now is        4.3 secs

     total energy              =     -46.31622371 Ry
     estimated scf accuracy    <       1.30889408 Ry

     iteration #  4     ecut=    55.00 Ry     beta= 0.70
     Davidson diagonalization with overlap
     ethr =  5.45E-03,  avg # of iterations =  4.2

     total cpu time spent up to now is        4.9 secs

     total energy              =     -46.46136191 Ry
     estimated scf accuracy    <       0.48333449 Ry

     iteration #  5     ecut=    55.00 Ry     beta= 0.70
     Davidson diagonalization with overlap
     ethr =  2.01E-03,  avg # of iterations =  4.8

     total cpu time spent up to now is        5.5 secs

     total energy              =     -46.53027341 Ry
     estimated scf accuracy    <       0.24295256 Ry

     iteration #  6     ecut=    55.00 Ry     beta= 0.70
     Davidson diagonalization with overlap
     ethr =  1.01E-03,  avg # of iterations =  4.6

     negative rho (up, down):  3.766E-07 0.000E+00

     total cpu time spent up to now is        6.1 secs

     total energy              =     -46.53029602 Ry
     estimated scf accuracy    <       0.15850981 Ry

     iteration #  7     ecut=    55.00 Ry     beta= 0.70
     Davidson diagonalization with overlap
     ethr =  6.60E-04,  avg # of iterations =  3.8

     negative rho (up, down):  3.288E-05 0.000E+00

     total cpu time spent up to now is        6.6 secs

     total energy              =     -46.52551195 Ry
     estimated scf accuracy    <       0.04876350 Ry

     iteration #  8     ecut=    55.00 Ry     beta= 0.70
     Davidson diagonalization with overlap
     ethr =  2.03E-04,  avg # of iterations = 10.3

     negative rho (up, down):  1.712E-04 0.000E+00

     total cpu time spent up to now is        7.6 secs

     total energy              =     -46.55317935 Ry
     estimated scf accuracy    <       0.00458371 Ry

     iteration #  9     ecut=    55.00 Ry     beta= 0.70
     Davidson diagonalization with overlap
     c_bands:  1 eigenvalues not converged
     c_bands:  1 eigenvalues not converged
     c_bands:  1 eigenvalues not converged
     c_bands:  1 eigenvalues not converged
     ethr =  1.91E-05,  avg # of iterations = 14.9

     negative rho (up, down):  1.296E-03 0.000E+00

     total cpu time spent up to now is        9.2 secs

     total energy              =     -46.56098732 Ry
     estimated scf accuracy    <       0.00098627 Ry

     iteration # 10     ecut=    55.00 Ry     beta= 0.70
     Davidson diagonalization with overlap
     c_bands:  1 eigenvalues not converged
     c_bands:  1 eigenvalues not converged
     c_bands:  1 eigenvalues not converged
     c_bands:  1 eigenvalues not converged
     c_bands:  1 eigenvalues not converged
     ethr =  4.11E-06,  avg # of iterations = 14.8

     negative rho (up, down):  7.174E-04 0.000E+00

     total cpu time spent up to now is       10.5 secs

     total energy              =     -46.56056193 Ry
     estimated scf accuracy    <       0.00325321 Ry

     iteration # 11     ecut=    55.00 Ry     beta= 0.70
     Davidson diagonalization with overlap
     ethr =  4.11E-06,  avg # of iterations = 10.9

     negative rho (up, down):  1.122E-03 0.000E+00

     total cpu time spent up to now is       11.4 secs

     total energy              =     -46.56152789 Ry
     estimated scf accuracy    <       0.00022978 Ry

     iteration # 12     ecut=    55.00 Ry     beta= 0.70
     Davidson diagonalization with overlap
     ethr =  9.57E-07,  avg # of iterations =  4.9

     negative rho (up, down):  1.177E-03 0.000E+00

     total cpu time spent up to now is       12.1 secs

     total energy              =     -46.56156371 Ry
     estimated scf accuracy    <       0.00006374 Ry

     iteration # 13     ecut=    55.00 Ry     beta= 0.70
     Davidson diagonalization with overlap
     ethr =  2.66E-07,  avg # of iterations =  5.1

     negative rho (up, down):  1.177E-03 0.000E+00

     total cpu time spent up to now is       12.8 secs

     total energy              =     -46.56159285 Ry
     estimated scf accuracy    <       0.00000194 Ry

     iteration # 14     ecut=    55.00 Ry     beta= 0.70
     Davidson diagonalization with overlap
     c_bands:  2 eigenvalues not converged
     ethr =  8.10E-09,  avg # of iterations = 15.5

     negative rho (up, down):  1.173E-03 0.000E+00

     total cpu time spent up to now is       14.8 secs

     total energy              =     -46.56160627 Ry
     estimated scf accuracy    <       0.00000213 Ry

     iteration # 15     ecut=    55.00 Ry     beta= 0.70
     Davidson diagonalization with overlap
     ethr =  8.10E-09,  avg # of iterations =  1.6

     negative rho (up, down):  1.169E-03 0.000E+00

     total cpu time spent up to now is       15.2 secs

     total energy              =     -46.56160621 Ry
     estimated scf accuracy    <       0.00000047 Ry

     iteration # 16     ecut=    55.00 Ry     beta= 0.70
     Davidson diagonalization with overlap
     ethr =  1.94E-09,  avg # of iterations =  6.1

     negative rho (up, down):  1.171E-03 0.000E+00

     total cpu time spent up to now is       16.0 secs

     total energy              =     -46.56160659 Ry
     estimated scf accuracy    <       0.00000017 Ry

     iteration # 17     ecut=    55.00 Ry     beta= 0.70
     Davidson diagonalization with overlap
     ethr =  7.03E-10,  avg # of iterations =  3.4

     negative rho (up, down):  1.174E-03 0.000E+00

     total cpu time spent up to now is       16.6 secs

     total energy              =     -46.56160658 Ry
     estimated scf accuracy    <       0.00000010 Ry

     iteration # 18     ecut=    55.00 Ry     beta= 0.70
     Davidson diagonalization with overlap
     ethr =  4.31E-10,  avg # of iterations =  3.6

     negative rho (up, down):  1.174E-03 0.000E+00

     total cpu time spent up to now is       17.1 secs

     End of self-consistent calculation

          k = 0.0000 0.0000 0.0000 (  3727 PWs)   bands (ev):

   -33.6778 -24.2789 -24.2789 -20.4350 -20.1312 -20.1312 -11.1616  -2.9569
    -0.0288   2.3318   2.3318   2.6553   2.6553   3.3224   5.6825   5.9776

          k = 0.0000 0.0962 0.0000 (  3733 PWs)   bands (ev):

   -33.6685 -25.0700 -25.0588 -20.2476 -19.1062 -19.0547 -10.9838  -3.7871
    -0.2575   0.7967   1.0598   2.9617   4.4159   4.5475   5.9057   6.2078

          k = 0.0000 0.1925 0.0000 (  3703 PWs)   bands (ev):

   -33.6480 -26.4036 -26.3855 -19.7343 -17.0724 -16.8775 -10.4694  -5.6961
    -1.0353  -0.4580   0.8039   2.4188   5.6003   6.2113   6.5816   6.7920

          k = 0.0000 0.2887 0.0000 (  3676 PWs)   bands (ev):

   -33.6359 -27.6149 -27.5099 -18.9100 -14.8964 -14.5042  -9.8618  -7.5285
    -1.6662  -1.0852   0.6435   1.6136   5.0213   7.2145   7.5943   7.7436

          k = 0.0000 0.3849 0.0000 (  3662 PWs)   bands (ev):

   -33.6470 -28.5268 -28.2951 -17.8173 -13.0413 -12.5905 -10.5579  -7.2370
    -1.9649  -0.8436   0.2189   0.5947   3.8065   6.1074   6.7213   9.0721

          k = 0.0000 0.4811 0.0000 (  3654 PWs)   bands (ev):

   -33.6733 -29.0868 -28.7369 -16.5499 -12.9109 -11.8713 -10.5612  -5.3856
    -1.8867  -1.1045   0.2722   0.3973   2.8289   3.8109   4.9727  10.8935

          k = 0.0000-0.5774 0.0000 (  3600 PWs)   bands (ev):

   -33.6866 -29.2751 -28.8762 -15.6422 -13.8862 -11.4911 -10.1969  -3.6769
    -2.8244  -1.4197   0.9103   1.2657   1.9214   3.2317   3.2531  12.5612

          k = 0.0833 0.1443 0.0000 (  3705 PWs)   bands (ev):

   -33.6537 -26.0543 -26.0292 -19.9008 -17.6383 -17.5202 -10.6356  -5.0610
    -1.5144   0.6462   0.6512   3.1522   4.2797   6.1458   6.4371   6.6249

          k = 0.0833 0.2406 0.0000 (  3670 PWs)   bands (ev):

   -33.6383 -27.2084 -27.1601 -19.2239 -15.6231 -15.3699 -10.0191  -6.8046
    -2.7587  -0.0518   0.8073   2.7240   5.0014   6.1224   7.3131   7.3878

          k = 0.0833 0.3368 0.0000 (  3669 PWs)   bands (ev):

   -33.6422 -28.1948 -28.0546 -18.2503 -13.6671 -13.2847  -9.9515  -7.6289
    -3.1133  -0.7924   0.8359   1.8078   4.2330   6.5959   7.4084   8.4052

          k = 0.0833 0.4330 0.0000 (  3654 PWs)   bands (ev):

   -33.6678 -28.8899 -28.6281 -17.0403 -12.4641 -12.1152 -10.7709  -6.2840
    -2.5457  -1.3149   0.0762   1.4252   3.2384   4.6725   6.3688   9.9255

          k = 0.0833 0.5292 0.0000 (  3630 PWs)   bands (ev):

   -33.6935 -29.2458 -28.8973 -15.7668 -13.5228 -11.5011 -10.3605  -4.3053
    -2.3455  -1.5836  -0.2549   1.6175   1.9910   3.4521   4.8958  11.8533

          k = 0.1667 0.2887 0.0000 (  3687 PWs)   bands (ev):

   -33.6423 -28.0412 -27.9844 -18.3831 -13.8589 -13.6506  -9.6969  -7.5434
    -3.9908  -0.6695   0.9619   3.2445   4.5295   5.5705   7.6700   8.2651

          k = 0.1667 0.3849 0.0000 (  3677 PWs)   bands (ev):

   -33.6697 -28.7268 -28.6027 -17.2577 -12.4850 -12.2755 -10.4549  -6.7701
    -3.8500  -1.4675   0.7519   2.0623   4.0066   5.4906   6.8219   9.2234

          k = 0.1667 0.4811 0.0000 (  3638 PWs)   bands (ev):

   -33.7066 -29.1716 -28.9548 -15.9343 -12.7567 -11.5861 -10.6965  -5.0510
    -2.6865  -1.8564  -0.3848   1.4948   2.3248   4.5798   7.0601  10.5275

          k = 0.1667 0.5774 0.0000 (  3632 PWs)   bands (ev):

   -33.7244 -29.3243 -29.0663 -14.8893 -13.7442 -11.4562 -10.4520  -3.2671
    -3.2312  -1.5308  -0.0258   0.0754   1.5546   4.4750   6.7151  11.8436

          k = 0.2500 0.4330 0.0000 (  3641 PWs)   bands (ev):

   -33.7131 -29.1099 -29.0082 -15.9936 -12.2210 -11.7313 -10.9175  -5.3382
    -3.1617  -2.0061   0.5040   0.7357   2.5339   5.7009   7.7243   9.9882

          k = 0.2500 0.5292 0.0000 (  3658 PWs)   bands (ev):

   -33.7480 -29.3205 -29.2018 -14.5953 -13.0208 -12.0092 -10.6428  -3.6348
    -2.4460  -1.5646  -0.7351   0.2872   0.6324   5.9876   8.6820   9.8765

          k = 0.3333 0.5774 0.0000 (  3666 PWs)   bands (ev):

   -33.7658 -29.3289 -29.3289 -13.2515 -13.2515 -12.9718 -10.6346  -2.1270
    -2.1270  -2.0795  -0.5965  -0.5965  -0.3071   7.7949   7.7949  10.1363

     the Fermi energy is     2.2447 ev

!    total energy              =     -46.56160660 Ry
     estimated scf accuracy    <          1.2E-09 Ry
     smearing contrib. (-TS)   =       0.00046287 Ry
     internal energy E=F+TS    =     -46.56206947 Ry

     The total energy is F=E-TS. E is the sum of the following terms:
     one-electron contribution =   -1330.13906821 Ry
     hartree contribution      =     672.15842397 Ry
     xc contribution           =     -31.88531356 Ry
     ewald contribution        =     643.30388833 Ry

     convergence has been achieved in  18 iterations

     negative rho (up, down):  1.174E-03 0.000E+00

     Forces acting on atoms (cartesian axes, Ry/au):

     atom    1 type  1   force =     0.00000000    0.00000000  -24.49834589
     atom    2 type  1   force =     0.00000000    0.00000000   -2.86180919
     atom    3 type  1   force =    -0.00000000   -0.00000000  -23.59153843
     atom    4 type  1   force =     0.00000000    0.00000000   23.59149170
     atom    5 type  1   force =     0.00000000    0.00000000    2.86181118
     atom    6 type  1   force =    -0.00000000   -0.00000000   24.49839064

     Total force =    48.268408     Total SCF correction =     0.000084


     Computing stress (Cartesian axis) and pressure


     negative rho (up, down):  1.174E-03 0.000E+00
          total   stress  (Ry/bohr**3)                   (kbar)     P=     6425.39
   0.01718944  -0.00000000   0.00000000         2528.65       -0.00        0.00
  -0.00000000   0.01718944   0.00000000           -0.00     2528.65        0.00
   0.00000000  -0.00000000   0.09665787            0.00       -0.00    14218.86


     Writing all to output data dir /run/media/rfa/SATA/Skripsi/DFT/Graphene-copy/tmp/gr-abc-3L.save/ :
     XML data file, charge density, pseudopotentials, collected wavefunctions

     init_run     :      0.56s CPU      0.60s WALL (       1 calls)
     electrons    :     30.40s CPU     16.42s WALL (       1 calls)
     forces       :      0.11s CPU      0.06s WALL (       1 calls)
     stress       :      0.33s CPU      0.20s WALL (       1 calls)

     Called by init_run:
     wfcinit      :      0.34s CPU      0.20s WALL (       1 calls)
     potinit      :      0.01s CPU      0.01s WALL (       1 calls)
     hinit0       :      0.19s CPU      0.36s WALL (       1 calls)

     Called by electrons:
     c_bands      :     27.38s CPU     14.69s WALL (      18 calls)
     sum_band     :      2.60s CPU      1.42s WALL (      18 calls)
     v_of_rho     :      0.16s CPU      0.13s WALL (      19 calls)
     newd         :      0.13s CPU      0.12s WALL (      19 calls)
     mix_rho      :      0.10s CPU      0.05s WALL (      18 calls)

     Called by c_bands:
     init_us_2    :      0.44s CPU      0.23s WALL (     741 calls)
     cegterg      :     26.64s CPU     14.28s WALL (     342 calls)

     Called by *egterg:
     cdiaghg      :      2.32s CPU      1.19s WALL (    2983 calls)
     h_psi        :     19.84s CPU     10.79s WALL (    3002 calls)
     s_psi        :      0.52s CPU      0.26s WALL (    3002 calls)
     g_psi        :      0.17s CPU      0.09s WALL (    2641 calls)

     Called by h_psi:
     h_psi:calbec :      2.46s CPU      1.28s WALL (    3002 calls)
     vloc_psi     :     16.19s CPU      8.87s WALL (    3002 calls)
     add_vuspsi   :      0.97s CPU      0.50s WALL (    3002 calls)

     General routines
     calbec       :      2.83s CPU      1.47s WALL (    3667 calls)
     fft          :      0.23s CPU      0.39s WALL (     234 calls)
     ffts         :      0.01s CPU      0.01s WALL (      18 calls)
     fftw         :     15.38s CPU      8.47s WALL (   53216 calls)

     Parallel routines

     PWSCF        :     31.49s CPU     17.62s WALL


   This run was terminated on:  16: 7:16  16Apr2025            

=------------------------------------------------------------------------------=
   JOB DONE.
=------------------------------------------------------------------------------=
