
     Program PWSCF v.7.4.1 starts on 16Apr2025 at 15:24:31 

     This program is part of the open-source Quantum ESPRESSO suite
     for quantum simulation of materials; please cite
         "P. Giannozzi et al., J. Phys.:Condens. Matter 21 395502 (2009);
         "P. Giannozzi et al., J. Phys.:Condens. Matter 29 465901 (2017);
         "P. Giannozzi et al., J. Chem. Phys. 152 154105 (2020);
          URL http://www.quantum-espresso.org", 
     in publications or presentations arising from this work. More details at
     http://www.quantum-espresso.org/quote

     Parallel version (MPI), running on     7 processors

     MPI processes distributed on     1 nodes
     14491 MiB available memory on the printing compute node when the environment starts

     Waiting for input...
     Reading input from standard input

     Current dimensions of program PWSCF are:
     Max number of different atomic species (ntypx) = 10
     Max number of k-points (npk) =  40000
     Max angular momentum in pseudopotentials (lmaxx) =  4

     R & G space division:  proc/nbgrp/npool/nimage =       7
     Subspace diagonalization in iterative solution of the eigenvalue problem:
     a serial algorithm will be used


     Parallelization info
     --------------------
     sticks:   dense  smooth     PW     G-vecs:    dense   smooth      PW
     Min          21      21      7                 1209     1209     253
     Max          22      22      8                 1218     1218     266
     Sum         151     151     55                 8507     8507    1811

     Using Slab Decomposition



     bravais-lattice index     =            4
     lattice parameter (alat)  =       4.6561  a.u.
     unit-cell volume          =     532.1899 (a.u.)^3
     number of atoms/cell      =            6
     number of atomic types    =            1
     number of electrons       =        24.00
     number of Kohn-Sham states=           16
     kinetic-energy cutoff     =      24.0000  Ry
     charge density cutoff     =      96.0000  Ry
     scf convergence threshold =      1.0E-08
     mixing beta               =       0.7000
     number of iterations used =            8  plain     mixing
     Exchange-correlation= PBE
                           (   1   4   3   4   0   0   0)

     celldm(1)=   4.656107  celldm(2)=   0.000000  celldm(3)=   6.087896
     celldm(4)=   0.000000  celldm(5)=   0.000000  celldm(6)=   0.000000

     crystal axes: (cart. coord. in units of alat)
               a(1) = (   1.000000   0.000000   0.000000 )  
               a(2) = (  -0.500000   0.866025   0.000000 )  
               a(3) = (   0.000000   0.000000   6.087896 )  

     reciprocal axes: (cart. coord. in units 2 pi/alat)
               b(1) = (  1.000000  0.577350 -0.000000 )  
               b(2) = (  0.000000  1.154701  0.000000 )  
               b(3) = (  0.000000 -0.000000  0.164260 )  


     PseudoPot. # 1 for C  read from file:
     /run/media/rfa/SATA/Skripsi/DFT/Graphene-copy/pseudo/C.pbe-n-rrkjus_psl.0.1.UPF
     MD5 check sum: 96a6a315177d77e6c95bf6fd3870f9e3
     Pseudo is Ultrasoft + core correction, Zval =  4.0
     Generated using &quot;atomic&quot; code by A. Dal Corso  v.6.3MaX
     Using radial grid of 1073 points,  4 beta functions with: 
                l(1) =   0
                l(2) =   0
                l(3) =   1
                l(4) =   1
     Q(r) pseudized with 0 coefficients 


     atomic species   valence    mass     pseudopotential
     C                 4.00    12.01070     C ( 1.00)

      6 Sym. Ops. (no inversion) found



   Cartesian axes

     site n.     atom                  positions (alat units)
         1        C      tau(   1) = (   0.0000000   0.5773503   3.0439478  )
         2        C      tau(   2) = (   0.5000000   0.2886751   3.0439478  )
         3        C      tau(   3) = (   0.0000000   0.0000000   3.2468777  )
         4        C      tau(   4) = (   0.0000000   0.5773503   3.2468777  )
         5        C      tau(   5) = (   0.5000000   0.2886751   3.4498075  )
         6        C      tau(   6) = (   0.0000000   0.0000000   3.4498075  )

     number of k points=    19  Marzari-Vanderbilt smearing, width (Ry)=  0.0200
                       cart. coord. in units 2pi/alat
        k(    1) = (   0.0000000   0.0000000   0.0000000), wk =   0.0138889
        k(    2) = (   0.0000000   0.0962250   0.0000000), wk =   0.0833333
        k(    3) = (   0.0000000   0.1924501   0.0000000), wk =   0.0833333
        k(    4) = (   0.0000000   0.2886751   0.0000000), wk =   0.0833333
        k(    5) = (   0.0000000   0.3849002   0.0000000), wk =   0.0833333
        k(    6) = (   0.0000000   0.4811252   0.0000000), wk =   0.0833333
        k(    7) = (   0.0000000  -0.5773503   0.0000000), wk =   0.0416667
        k(    8) = (   0.0833333   0.1443376   0.0000000), wk =   0.0833333
        k(    9) = (   0.0833333   0.2405626   0.0000000), wk =   0.1666667
        k(   10) = (   0.0833333   0.3367877   0.0000000), wk =   0.1666667
        k(   11) = (   0.0833333   0.4330127   0.0000000), wk =   0.1666667
        k(   12) = (   0.0833333   0.5292377   0.0000000), wk =   0.1666667
        k(   13) = (   0.1666667   0.2886751   0.0000000), wk =   0.0833333
        k(   14) = (   0.1666667   0.3849002   0.0000000), wk =   0.1666667
        k(   15) = (   0.1666667   0.4811252   0.0000000), wk =   0.1666667
        k(   16) = (   0.1666667   0.5773503   0.0000000), wk =   0.0833333
        k(   17) = (   0.2500000   0.4330127   0.0000000), wk =   0.0833333
        k(   18) = (   0.2500000   0.5292377   0.0000000), wk =   0.1666667
        k(   19) = (   0.3333333   0.5773503   0.0000000), wk =   0.0277778

     Dense  grid:     8507 G-vectors     FFT dimensions: (  15,  15,  90)

     Estimated max dynamical RAM per process >       2.88 MB

     Estimated total dynamical RAM >      20.17 MB

     Check: negative core charge=   -0.000164

     Initial potential from superposition of free atoms

     starting charge      23.9998, renormalised to      24.0000

     negative rho (up, down):  1.196E-02 0.000E+00
     Starting wfcs are   24 randomized atomic wfcs

     total cpu time spent up to now is        5.2 secs

     per-process dynamical memory:     8.7 Mb

     Self-consistent Calculation

     iteration #  1     ecut=    24.00 Ry     beta= 0.70
     Davidson diagonalization with overlap
     ethr =  1.00E-02,  avg # of iterations =  5.5

     negative rho (up, down):  1.163E-01 0.000E+00

     total cpu time spent up to now is       29.1 secs

     total energy              =     -41.04281495 Ry
     estimated scf accuracy    <       9.66531311 Ry

     iteration #  2     ecut=    24.00 Ry     beta= 0.70
     Davidson diagonalization with overlap
     ethr =  1.00E-02,  avg # of iterations = 10.9

     negative rho (up, down):  3.881E-04 0.000E+00

     total cpu time spent up to now is       58.6 secs

     total energy              =     -30.55375523 Ry
     estimated scf accuracy    <      62.27720155 Ry

     iteration #  3     ecut=    24.00 Ry     beta= 0.70
     Davidson diagonalization with overlap
     ethr =  1.00E-02,  avg # of iterations =  9.8

     negative rho (up, down):  1.620E-03 0.000E+00

     total cpu time spent up to now is       75.0 secs

     total energy              =     -45.17231164 Ry
     estimated scf accuracy    <       1.80792367 Ry

     iteration #  4     ecut=    24.00 Ry     beta= 0.70
     Davidson diagonalization with overlap
     ethr =  7.53E-03,  avg # of iterations =  2.6

     negative rho (up, down):  5.537E-03 0.000E+00

     total cpu time spent up to now is       75.2 secs

     total energy              =     -45.23813318 Ry
     estimated scf accuracy    <       0.74935200 Ry

     iteration #  5     ecut=    24.00 Ry     beta= 0.70
     Davidson diagonalization with overlap
     ethr =  3.12E-03,  avg # of iterations =  1.2

     negative rho (up, down):  1.119E-02 0.000E+00

     total cpu time spent up to now is       75.3 secs

     total energy              =     -45.11185249 Ry
     estimated scf accuracy    <       0.50893183 Ry

     iteration #  6     ecut=    24.00 Ry     beta= 0.70
     Davidson diagonalization with overlap
     ethr =  2.12E-03,  avg # of iterations =  1.1

     negative rho (up, down):  1.420E-02 0.000E+00

     total cpu time spent up to now is       75.4 secs

     total energy              =     -45.08377605 Ry
     estimated scf accuracy    <       0.28749717 Ry

     iteration #  7     ecut=    24.00 Ry     beta= 0.70
     Davidson diagonalization with overlap
     ethr =  1.20E-03,  avg # of iterations =  1.1

     negative rho (up, down):  1.913E-02 0.000E+00

     total cpu time spent up to now is       75.5 secs

     total energy              =     -45.04465244 Ry
     estimated scf accuracy    <       0.22687266 Ry

     iteration #  8     ecut=    24.00 Ry     beta= 0.70
     Davidson diagonalization with overlap
     ethr =  9.45E-04,  avg # of iterations =  1.8

     negative rho (up, down):  2.764E-02 0.000E+00

     total cpu time spent up to now is       75.7 secs

     total energy              =     -45.00359906 Ry
     estimated scf accuracy    <       0.16391539 Ry

     iteration #  9     ecut=    24.00 Ry     beta= 0.70
     Davidson diagonalization with overlap
     ethr =  6.83E-04,  avg # of iterations =  2.5

     negative rho (up, down):  7.653E-02 0.000E+00

     total cpu time spent up to now is       75.8 secs

     total energy              =     -44.92168976 Ry
     estimated scf accuracy    <       0.10744876 Ry

     iteration # 10     ecut=    24.00 Ry     beta= 0.70
     Davidson diagonalization with overlap
     ethr =  4.48E-04,  avg # of iterations =  7.3

     negative rho (up, down):  7.297E-02 0.000E+00

     total cpu time spent up to now is       76.0 secs

     total energy              =     -44.93357715 Ry
     estimated scf accuracy    <       0.00264174 Ry

     iteration # 11     ecut=    24.00 Ry     beta= 0.70
     Davidson diagonalization with overlap
     c_bands:  1 eigenvalues not converged
     c_bands:  1 eigenvalues not converged
     ethr =  1.10E-05,  avg # of iterations = 10.6

     negative rho (up, down):  9.275E-02 0.000E+00

     total cpu time spent up to now is       76.3 secs

     total energy              =     -44.93054371 Ry
     estimated scf accuracy    <       0.00368258 Ry

     iteration # 12     ecut=    24.00 Ry     beta= 0.70
     Davidson diagonalization with overlap
     c_bands:  1 eigenvalues not converged
     c_bands:  1 eigenvalues not converged
     c_bands:  1 eigenvalues not converged
     c_bands:  1 eigenvalues not converged
     c_bands:  1 eigenvalues not converged
     c_bands:  1 eigenvalues not converged
     ethr =  1.10E-05,  avg # of iterations = 14.2

     negative rho (up, down):  9.021E-02 0.000E+00

     total cpu time spent up to now is       76.5 secs

     total energy              =     -44.93090584 Ry
     estimated scf accuracy    <       0.00033358 Ry

     iteration # 13     ecut=    24.00 Ry     beta= 0.70
     Davidson diagonalization with overlap
     c_bands:  1 eigenvalues not converged
     c_bands:  1 eigenvalues not converged
     ethr =  1.39E-06,  avg # of iterations = 10.1

     negative rho (up, down):  9.103E-02 0.000E+00

     total cpu time spent up to now is       76.8 secs

     total energy              =     -44.93099254 Ry
     estimated scf accuracy    <       0.00003605 Ry

     iteration # 14     ecut=    24.00 Ry     beta= 0.70
     Davidson diagonalization with overlap
     ethr =  1.50E-07,  avg # of iterations =  4.1

     negative rho (up, down):  9.103E-02 0.000E+00

     total cpu time spent up to now is       76.9 secs

     total energy              =     -44.93099516 Ry
     estimated scf accuracy    <       0.00001204 Ry

     iteration # 15     ecut=    24.00 Ry     beta= 0.70
     Davidson diagonalization with overlap
     ethr =  5.02E-08,  avg # of iterations =  2.8

     negative rho (up, down):  9.074E-02 0.000E+00

     total cpu time spent up to now is       77.1 secs

     total energy              =     -44.93099552 Ry
     estimated scf accuracy    <       0.00000610 Ry

     iteration # 16     ecut=    24.00 Ry     beta= 0.70
     Davidson diagonalization with overlap
     ethr =  2.54E-08,  avg # of iterations =  1.9

     negative rho (up, down):  9.057E-02 0.000E+00

     total cpu time spent up to now is       77.2 secs

     total energy              =     -44.93099562 Ry
     estimated scf accuracy    <       0.00000223 Ry

     iteration # 17     ecut=    24.00 Ry     beta= 0.70
     Davidson diagonalization with overlap
     ethr =  9.27E-09,  avg # of iterations =  2.0

     negative rho (up, down):  9.050E-02 0.000E+00

     total cpu time spent up to now is       77.3 secs

     total energy              =     -44.93099572 Ry
     estimated scf accuracy    <       0.00000091 Ry

     iteration # 18     ecut=    24.00 Ry     beta= 0.70
     Davidson diagonalization with overlap
     ethr =  3.79E-09,  avg # of iterations =  2.2

     negative rho (up, down):  9.051E-02 0.000E+00

     total cpu time spent up to now is       77.5 secs

     total energy              =     -44.93099552 Ry
     estimated scf accuracy    <       0.00000053 Ry

     iteration # 19     ecut=    24.00 Ry     beta= 0.70
     Davidson diagonalization with overlap
     ethr =  2.21E-09,  avg # of iterations =  1.9

     negative rho (up, down):  9.052E-02 0.000E+00

     total cpu time spent up to now is       77.6 secs

     total energy              =     -44.93099534 Ry
     estimated scf accuracy    <       0.00000013 Ry

     iteration # 20     ecut=    24.00 Ry     beta= 0.70
     Davidson diagonalization with overlap
     ethr =  5.44E-10,  avg # of iterations =  4.1

     negative rho (up, down):  9.051E-02 0.000E+00

     total cpu time spent up to now is       77.8 secs

     End of self-consistent calculation

          k = 0.0000 0.0000 0.0000 (  1077 PWs)   bands (ev):

   -34.4861 -25.5516 -25.5516 -21.0672 -21.0672 -19.8872 -10.8332  -1.8467
    -1.1434   1.5026   1.5026   2.0713   2.0713   3.8669   4.4281   4.8843

          k = 0.0000 0.0962 0.0000 (  1089 PWs)   bands (ev):

   -34.4777 -26.2888 -26.2779 -20.1537 -20.1052 -19.6665 -10.7376  -2.8474
    -1.2288   0.0409   0.2723   3.1103   3.7409   4.1232   4.6367   5.3095

          k = 0.0000 0.1925 0.0000 (  1078 PWs)   bands (ev):

   -34.4520 -27.5992 -27.4975 -19.3089 -18.1271 -17.7968 -10.3760  -4.6887
    -1.5252  -1.1815  -0.2496   3.1850   4.8366   5.2760   5.6199   6.2680

          k = 0.0000 0.2887 0.0000 (  1064 PWs)   bands (ev):

   -34.4143 -28.7712 -28.5507 -18.4177 -15.9354 -15.3883 -10.0262  -6.3110
    -1.9337  -1.7155  -0.4852   2.8220   5.9695   6.0058   6.4445   6.9831

          k = 0.0000 0.3849 0.0000 (  1044 PWs)   bands (ev):

   -34.3749 -29.6735 -29.2620 -17.2367 -14.0601 -13.2267 -10.5817  -6.2047
    -2.2088  -1.4123  -0.6882   2.4636   4.0958   5.3009   6.7958   7.5668

          k = 0.0000 0.4811 0.0000 (  1052 PWs)   bands (ev):

   -34.4865 -30.2247 -29.6488 -15.8849 -12.9265 -12.9199 -10.8229  -4.8637
    -2.4120  -1.0149  -0.1810   1.9536   2.7181   3.0016   4.6292   9.5961

          k = 0.0000-0.5774 0.0000 (  1062 PWs)   bands (ev):

   -34.5254 -30.4256 -29.7698 -14.6955 -14.1114 -12.5584 -10.4093  -3.9389
    -2.7474  -0.5026   0.7120   1.4263   2.0116   2.4677   2.6403  11.6707

          k = 0.0833 0.1443 0.0000 (  1077 PWs)   bands (ev):

   -34.4592 -27.2111 -27.1873 -19.4782 -18.6264 -18.4572 -10.4536  -4.0220
    -2.0219  -0.5074  -0.0717   3.9785   4.1970   4.6439   5.0675   6.0673

          k = 0.0833 0.2406 0.0000 (  1065 PWs)   bands (ev):

   -34.4208 -28.3542 -28.2637 -18.7427 -16.6195 -16.3382 -10.0525  -5.5727
    -3.0384  -0.7665  -0.3882   3.8059   5.4571   5.7107   5.9095   6.9629

          k = 0.0833 0.3368 0.0000 (  1061 PWs)   bands (ev):

   -34.4064 -29.3264 -29.0789 -17.7445 -14.6860 -14.1160 -10.1076  -6.4041
    -3.2375  -1.4294  -0.3851   3.3327   4.6422   6.1129   6.8685   7.1130

          k = 0.0833 0.4330 0.0000 (  1047 PWs)   bands (ev):

   -34.4561 -30.0018 -29.5729 -16.4331 -13.2204 -12.5890 -10.8997  -5.4527
    -2.7175  -1.7136  -0.4315   2.8064   3.0371   3.9233   6.6138   8.7034

          k = 0.0833 0.5292 0.0000 (  1043 PWs)   bands (ev):

   -34.5182 -30.3539 -29.7799 -15.0312 -13.5239 -12.4047 -10.5604  -4.0747
    -2.4768  -0.9262  -0.1509   1.3211   1.6680   3.0630   5.1900  10.9205

          k = 0.1667 0.2887 0.0000 (  1057 PWs)   bands (ev):

   -34.4056 -29.1087 -29.0846 -17.8752 -14.7809 -14.6197  -9.8489  -6.0380
    -4.2042  -1.2398  -0.2177   4.6084   4.8711   6.0522   6.7132   6.7174

          k = 0.1667 0.3849 0.0000 (  1060 PWs)   bands (ev):

   -34.4875 -29.7966 -29.6132 -16.6963 -13.3349 -12.9748 -10.4250  -5.6198
    -4.0063  -1.9488  -0.2568   2.7902   3.9185   5.1428   7.3323   8.2910

          k = 0.1667 0.4811 0.0000 (  1048 PWs)   bands (ev):

   -34.5565 -30.2212 -29.8832 -15.3722 -12.9655 -12.0957 -10.8612  -4.3752
    -2.5970  -2.3856  -0.5724   1.3455   1.8855   4.5681   7.7423  10.2843

          k = 0.1667 0.5774 0.0000 (  1040 PWs)   bands (ev):

   -34.5808 -30.3492 -29.9618 -14.0066 -13.9169 -11.9614 -10.6390  -3.3800
    -2.6473  -1.0703  -0.3570  -0.3053   0.8369   4.4187   7.5154  11.5464

          k = 0.2500 0.4330 0.0000 (  1052 PWs)   bands (ev):

   -34.5787 -30.0998 -29.9858 -15.4912 -12.7662 -11.9907 -10.8854  -4.5081
    -3.3724  -2.4755  -0.3980   1.1158   2.0994   5.6695   8.6035  10.0471

          k = 0.2500 0.5292 0.0000 (  1041 PWs)   bands (ev):

   -34.6284 -30.2711 -30.1139 -14.2216 -12.9907 -11.9719 -10.8476  -3.1540
    -2.5965  -1.8266  -0.9239  -0.0130   0.2263   5.9764   9.6631   9.8040

          k = 0.3333 0.5774 0.0000 (  1050 PWs)   bands (ev):

   -34.6743 -30.2606 -30.2606 -13.7147 -12.6148 -12.6148 -10.8428  -2.2732
    -2.0726  -2.0726  -0.9654  -0.9654  -0.7459   7.6790   7.6790  11.1738

     the Fermi energy is     2.8062 ev

!    total energy              =     -44.93099546 Ry
     estimated scf accuracy    <          6.9E-09 Ry
     smearing contrib. (-TS)   =      -0.00172729 Ry
     internal energy E=F+TS    =     -44.92926817 Ry

     The total energy is F=E-TS. E is the sum of the following terms:
     one-electron contribution =   -1326.49921344 Ry
     hartree contribution      =     669.94751000 Ry
     xc contribution           =     -31.68145319 Ry
     ewald contribution        =     643.30388845 Ry

     convergence has been achieved in  20 iterations

     negative rho (up, down):  9.051E-02 0.000E+00

     Forces acting on atoms (cartesian axes, Ry/au):

     atom    1 type  1   force =     0.00000000    0.00000000  -27.29029595
     atom    2 type  1   force =     0.00000000    0.00000000   -3.15029821
     atom    3 type  1   force =     0.00000000    0.00000000  -26.56275420
     atom    4 type  1   force =     0.00000000   -0.00000000   26.56276617
     atom    5 type  1   force =     0.00000000    0.00000000    3.15029278
     atom    6 type  1   force =     0.00000000    0.00000000   27.29028941

     Total force =    54.041922     Total SCF correction =     0.000228


     Computing stress (Cartesian axis) and pressure


     negative rho (up, down):  9.051E-02 0.000E+00
          total   stress  (Ry/bohr**3)                   (kbar)     P=     5762.60
   0.01047403  -0.00000000   0.00000000         1540.78       -0.00        0.00
  -0.00000000   0.01047403  -0.00000000           -0.00     1540.78       -0.00
   0.00000000  -0.00000000   0.09657203            0.00       -0.00    14206.24


     Writing all to output data dir /run/media/rfa/SATA/Skripsi/DFT/Graphene-copy/tmp/gr-abc-3L.save/ :
     XML data file, charge density, pseudopotentials, collected wavefunctions

     init_run     :      3.13s CPU      4.94s WALL (       1 calls)
     electrons    :     49.24s CPU     72.57s WALL (       1 calls)
     forces       :      0.03s CPU      0.02s WALL (       1 calls)
     stress       :      0.09s CPU      0.05s WALL (       1 calls)

     Called by init_run:
     wfcinit      :      2.88s CPU      4.46s WALL (       1 calls)
     potinit      :      0.01s CPU      0.02s WALL (       1 calls)
     hinit0       :      0.16s CPU      0.35s WALL (       1 calls)

     Called by electrons:
     c_bands      :     47.07s CPU     69.80s WALL (      20 calls)
     sum_band     :      1.79s CPU      2.33s WALL (      20 calls)
     v_of_rho     :      0.08s CPU      0.05s WALL (      21 calls)
     newd         :      0.30s CPU      0.38s WALL (      21 calls)
     mix_rho      :      0.04s CPU      0.02s WALL (      20 calls)

     Called by c_bands:
     init_us_2    :      0.12s CPU      0.07s WALL (     817 calls)
     cegterg      :     46.21s CPU     68.80s WALL (     380 calls)

     Called by *egterg:
     cdiaghg      :     15.77s CPU     22.13s WALL (    2235 calls)
     h_psi        :     13.87s CPU     20.63s WALL (    2254 calls)
     s_psi        :      2.08s CPU      2.90s WALL (    2254 calls)
     g_psi        :      0.04s CPU      0.02s WALL (    1855 calls)

     Called by h_psi:
     h_psi:calbec :      5.94s CPU      7.47s WALL (    2254 calls)
     vloc_psi     :      5.70s CPU     10.33s WALL (    2254 calls)
     add_vuspsi   :      2.17s CPU      2.78s WALL (    2254 calls)

     General routines
     calbec       :      6.83s CPU      8.67s WALL (    2957 calls)
     fft          :      0.17s CPU      0.34s WALL (     256 calls)
     ffts         :      0.01s CPU      0.02s WALL (      20 calls)
     fftw         :      5.94s CPU     10.90s WALL (   41618 calls)

     Parallel routines

     PWSCF        :     52.65s CPU   1m17.94s WALL


   This run was terminated on:  15:25:49  16Apr2025            

=------------------------------------------------------------------------------=
   JOB DONE.
=------------------------------------------------------------------------------=
