
     Program PWSCF v.7.4.1 starts on 16Apr2025 at 15:29:15 

     This program is part of the open-source Quantum ESPRESSO suite
     for quantum simulation of materials; please cite
         "P. Giannozzi et al., J. Phys.:Condens. Matter 21 395502 (2009);
         "P. Giannozzi et al., J. Phys.:Condens. Matter 29 465901 (2017);
         "P. Giannozzi et al., J. Chem. Phys. 152 154105 (2020);
          URL http://www.quantum-espresso.org", 
     in publications or presentations arising from this work. More details at
     http://www.quantum-espresso.org/quote

     Parallel version (MPI), running on     7 processors

     MPI processes distributed on     1 nodes
     14434 MiB available memory on the printing compute node when the environment starts

     Waiting for input...
     Reading input from standard input

     Current dimensions of program PWSCF are:
     Max number of different atomic species (ntypx) = 10
     Max number of k-points (npk) =  40000
     Max angular momentum in pseudopotentials (lmaxx) =  4

     R & G space division:  proc/nbgrp/npool/nimage =       7
     Subspace diagonalization in iterative solution of the eigenvalue problem:
     a serial algorithm will be used


     Parallelization info
     --------------------
     sticks:   dense  smooth     PW     G-vecs:    dense   smooth      PW
     Min          26      26      8                 1676     1676     330
     Max          27      27     10                 1681     1681     342
     Sum         187     187     61                11745    11745    2349

     Using Slab Decomposition



     bravais-lattice index     =            4
     lattice parameter (alat)  =       4.6561  a.u.
     unit-cell volume          =     532.1899 (a.u.)^3
     number of atoms/cell      =            6
     number of atomic types    =            1
     number of electrons       =        24.00
     number of Kohn-Sham states=           16
     kinetic-energy cutoff     =      30.0000  Ry
     charge density cutoff     =     120.0000  Ry
     scf convergence threshold =      1.0E-08
     mixing beta               =       0.7000
     number of iterations used =            8  plain     mixing
     Exchange-correlation= PBE
                           (   1   4   3   4   0   0   0)

     celldm(1)=   4.656107  celldm(2)=   0.000000  celldm(3)=   6.087896
     celldm(4)=   0.000000  celldm(5)=   0.000000  celldm(6)=   0.000000

     crystal axes: (cart. coord. in units of alat)
               a(1) = (   1.000000   0.000000   0.000000 )  
               a(2) = (  -0.500000   0.866025   0.000000 )  
               a(3) = (   0.000000   0.000000   6.087896 )  

     reciprocal axes: (cart. coord. in units 2 pi/alat)
               b(1) = (  1.000000  0.577350 -0.000000 )  
               b(2) = (  0.000000  1.154701  0.000000 )  
               b(3) = (  0.000000 -0.000000  0.164260 )  


     PseudoPot. # 1 for C  read from file:
     /run/media/rfa/SATA/Skripsi/DFT/Graphene-copy/pseudo/C.pbe-n-rrkjus_psl.0.1.UPF
     MD5 check sum: 96a6a315177d77e6c95bf6fd3870f9e3
     Pseudo is Ultrasoft + core correction, Zval =  4.0
     Generated using &quot;atomic&quot; code by A. Dal Corso  v.6.3MaX
     Using radial grid of 1073 points,  4 beta functions with: 
                l(1) =   0
                l(2) =   0
                l(3) =   1
                l(4) =   1
     Q(r) pseudized with 0 coefficients 


     atomic species   valence    mass     pseudopotential
     C                 4.00    12.01070     C ( 1.00)

      6 Sym. Ops. (no inversion) found



   Cartesian axes

     site n.     atom                  positions (alat units)
         1        C      tau(   1) = (   0.0000000   0.5773503   3.0439478  )
         2        C      tau(   2) = (   0.5000000   0.2886751   3.0439478  )
         3        C      tau(   3) = (   0.0000000   0.0000000   3.2468777  )
         4        C      tau(   4) = (   0.0000000   0.5773503   3.2468777  )
         5        C      tau(   5) = (   0.5000000   0.2886751   3.4498075  )
         6        C      tau(   6) = (   0.0000000   0.0000000   3.4498075  )

     number of k points=    19  Marzari-Vanderbilt smearing, width (Ry)=  0.0200
                       cart. coord. in units 2pi/alat
        k(    1) = (   0.0000000   0.0000000   0.0000000), wk =   0.0138889
        k(    2) = (   0.0000000   0.0962250   0.0000000), wk =   0.0833333
        k(    3) = (   0.0000000   0.1924501   0.0000000), wk =   0.0833333
        k(    4) = (   0.0000000   0.2886751   0.0000000), wk =   0.0833333
        k(    5) = (   0.0000000   0.3849002   0.0000000), wk =   0.0833333
        k(    6) = (   0.0000000   0.4811252   0.0000000), wk =   0.0833333
        k(    7) = (   0.0000000  -0.5773503   0.0000000), wk =   0.0416667
        k(    8) = (   0.0833333   0.1443376   0.0000000), wk =   0.0833333
        k(    9) = (   0.0833333   0.2405626   0.0000000), wk =   0.1666667
        k(   10) = (   0.0833333   0.3367877   0.0000000), wk =   0.1666667
        k(   11) = (   0.0833333   0.4330127   0.0000000), wk =   0.1666667
        k(   12) = (   0.0833333   0.5292377   0.0000000), wk =   0.1666667
        k(   13) = (   0.1666667   0.2886751   0.0000000), wk =   0.0833333
        k(   14) = (   0.1666667   0.3849002   0.0000000), wk =   0.1666667
        k(   15) = (   0.1666667   0.4811252   0.0000000), wk =   0.1666667
        k(   16) = (   0.1666667   0.5773503   0.0000000), wk =   0.0833333
        k(   17) = (   0.2500000   0.4330127   0.0000000), wk =   0.0833333
        k(   18) = (   0.2500000   0.5292377   0.0000000), wk =   0.1666667
        k(   19) = (   0.3333333   0.5773503   0.0000000), wk =   0.0277778

     Dense  grid:    11745 G-vectors     FFT dimensions: (  18,  18, 100)

     Estimated max dynamical RAM per process >       4.00 MB

     Estimated total dynamical RAM >      27.99 MB

     Check: negative core charge=   -0.000020

     Initial potential from superposition of free atoms

     starting charge      23.9998, renormalised to      24.0000

     negative rho (up, down):  3.907E-03 0.000E+00
     Starting wfcs are   24 randomized atomic wfcs

     total cpu time spent up to now is        6.9 secs

     per-process dynamical memory:     9.4 Mb

     Self-consistent Calculation

     iteration #  1     ecut=    30.00 Ry     beta= 0.70
     Davidson diagonalization with overlap
     ethr =  1.00E-02,  avg # of iterations =  5.7

     negative rho (up, down):  4.853E-02 0.000E+00

     total cpu time spent up to now is       37.9 secs

     total energy              =     -41.52011464 Ry
     estimated scf accuracy    <      10.92105755 Ry

     iteration #  2     ecut=    30.00 Ry     beta= 0.70
     Davidson diagonalization with overlap
     c_bands:  1 eigenvalues not converged
     ethr =  1.00E-02,  avg # of iterations = 12.7

     total cpu time spent up to now is       80.0 secs

     total energy              =     -33.14356448 Ry
     estimated scf accuracy    <      49.47699150 Ry

     iteration #  3     ecut=    30.00 Ry     beta= 0.70
     Davidson diagonalization with overlap
     ethr =  1.00E-02,  avg # of iterations = 12.2

     negative rho (up, down):  5.990E-06 0.000E+00

     total cpu time spent up to now is      114.3 secs

     total energy              =     -46.11986604 Ry
     estimated scf accuracy    <       1.95761411 Ry

     iteration #  4     ecut=    30.00 Ry     beta= 0.70
     Davidson diagonalization with overlap
     ethr =  8.16E-03,  avg # of iterations =  2.5

     negative rho (up, down):  6.106E-05 0.000E+00

     total cpu time spent up to now is      117.8 secs

     total energy              =     -46.16822811 Ry
     estimated scf accuracy    <       0.75795154 Ry

     iteration #  5     ecut=    30.00 Ry     beta= 0.70
     Davidson diagonalization with overlap
     ethr =  3.16E-03,  avg # of iterations =  1.9

     negative rho (up, down):  2.219E-04 0.000E+00

     total cpu time spent up to now is      118.0 secs

     total energy              =     -46.05130867 Ry
     estimated scf accuracy    <       0.46873808 Ry

     iteration #  6     ecut=    30.00 Ry     beta= 0.70
     Davidson diagonalization with overlap
     ethr =  1.95E-03,  avg # of iterations =  1.8

     negative rho (up, down):  3.597E-04 0.000E+00

     total cpu time spent up to now is      118.3 secs

     total energy              =     -46.03822808 Ry
     estimated scf accuracy    <       0.25679087 Ry

     iteration #  7     ecut=    30.00 Ry     beta= 0.70
     Davidson diagonalization with overlap
     ethr =  1.07E-03,  avg # of iterations =  2.7

     negative rho (up, down):  4.406E-04 0.000E+00

     total cpu time spent up to now is      118.5 secs

     total energy              =     -46.04398600 Ry
     estimated scf accuracy    <       0.18163655 Ry

     iteration #  8     ecut=    30.00 Ry     beta= 0.70
     Davidson diagonalization with overlap
     ethr =  7.57E-04,  avg # of iterations =  1.3

     negative rho (up, down):  4.776E-04 0.000E+00

     total cpu time spent up to now is      118.7 secs

     total energy              =     -46.04023153 Ry
     estimated scf accuracy    <       0.15892876 Ry

     iteration #  9     ecut=    30.00 Ry     beta= 0.70
     Davidson diagonalization with overlap
     ethr =  6.62E-04,  avg # of iterations =  1.7

     negative rho (up, down):  3.121E-03 0.000E+00

     total cpu time spent up to now is      123.1 secs

     total energy              =     -45.98074944 Ry
     estimated scf accuracy    <       0.14442576 Ry

     iteration # 10     ecut=    30.00 Ry     beta= 0.70
     Davidson diagonalization with overlap
     ethr =  6.02E-04,  avg # of iterations =  5.1

     negative rho (up, down):  7.713E-03 0.000E+00

     total cpu time spent up to now is      139.8 secs

     total energy              =     -45.97377507 Ry
     estimated scf accuracy    <       0.06003722 Ry

     iteration # 11     ecut=    30.00 Ry     beta= 0.70
     Davidson diagonalization with overlap
     ethr =  2.50E-04,  avg # of iterations =  6.1

     negative rho (up, down):  3.440E-02 0.000E+00

     total cpu time spent up to now is      158.4 secs

     total energy              =     -45.96172297 Ry
     estimated scf accuracy    <       0.03865283 Ry

     iteration # 12     ecut=    30.00 Ry     beta= 0.70
     Davidson diagonalization with overlap
     ethr =  1.61E-04,  avg # of iterations =  8.7

     negative rho (up, down):  3.218E-02 0.000E+00

     total cpu time spent up to now is      180.3 secs

     total energy              =     -45.95170376 Ry
     estimated scf accuracy    <       0.02481823 Ry

     iteration # 13     ecut=    30.00 Ry     beta= 0.70
     Davidson diagonalization with overlap
     ethr =  1.03E-04,  avg # of iterations =  2.4

     negative rho (up, down):  3.293E-02 0.000E+00

     total cpu time spent up to now is      193.0 secs

     total energy              =     -45.95609005 Ry
     estimated scf accuracy    <       0.00034768 Ry

     iteration # 14     ecut=    30.00 Ry     beta= 0.70
     Davidson diagonalization with overlap
     c_bands:  1 eigenvalues not converged
     c_bands:  1 eigenvalues not converged
     c_bands:  1 eigenvalues not converged
     c_bands:  1 eigenvalues not converged
     c_bands:  2 eigenvalues not converged
     c_bands:  1 eigenvalues not converged
     c_bands:  1 eigenvalues not converged
     c_bands:  1 eigenvalues not converged
     ethr =  1.45E-06,  avg # of iterations = 17.3

     negative rho (up, down):  3.343E-02 0.000E+00

     total cpu time spent up to now is      239.6 secs

     total energy              =     -45.95697480 Ry
     estimated scf accuracy    <       0.00330860 Ry

     iteration # 15     ecut=    30.00 Ry     beta= 0.70
     Davidson diagonalization with overlap
     c_bands:  1 eigenvalues not converged
     c_bands:  1 eigenvalues not converged
     c_bands:  1 eigenvalues not converged
     ethr =  1.45E-06,  avg # of iterations = 10.7

     negative rho (up, down):  3.335E-02 0.000E+00

     total cpu time spent up to now is      240.1 secs

     total energy              =     -45.95759692 Ry
     estimated scf accuracy    <       0.00002856 Ry

     iteration # 16     ecut=    30.00 Ry     beta= 0.70
     Davidson diagonalization with overlap
     ethr =  1.19E-07,  avg # of iterations =  5.7

     negative rho (up, down):  3.335E-02 0.000E+00

     total cpu time spent up to now is      240.4 secs

     total energy              =     -45.95761972 Ry
     estimated scf accuracy    <       0.00000594 Ry

     iteration # 17     ecut=    30.00 Ry     beta= 0.70
     Davidson diagonalization with overlap
     ethr =  2.47E-08,  avg # of iterations =  3.9

     negative rho (up, down):  3.343E-02 0.000E+00

     total cpu time spent up to now is      253.2 secs

     total energy              =     -45.95761995 Ry
     estimated scf accuracy    <       0.00000344 Ry

     iteration # 18     ecut=    30.00 Ry     beta= 0.70
     Davidson diagonalization with overlap
     ethr =  1.43E-08,  avg # of iterations =  3.5

     negative rho (up, down):  3.344E-02 0.000E+00

     total cpu time spent up to now is      267.7 secs

     total energy              =     -45.95762086 Ry
     estimated scf accuracy    <       0.00000163 Ry

     iteration # 19     ecut=    30.00 Ry     beta= 0.70
     Davidson diagonalization with overlap
     ethr =  6.78E-09,  avg # of iterations =  2.2

     negative rho (up, down):  3.343E-02 0.000E+00

     total cpu time spent up to now is      278.2 secs

     total energy              =     -45.95762088 Ry
     estimated scf accuracy    <       0.00000043 Ry

     iteration # 20     ecut=    30.00 Ry     beta= 0.70
     Davidson diagonalization with overlap
     ethr =  1.81E-09,  avg # of iterations =  3.1

     negative rho (up, down):  3.344E-02 0.000E+00

     total cpu time spent up to now is      290.4 secs

     total energy              =     -45.95762094 Ry
     estimated scf accuracy    <       0.00000006 Ry

     iteration # 21     ecut=    30.00 Ry     beta= 0.70
     Davidson diagonalization with overlap
     ethr =  2.38E-10,  avg # of iterations =  5.0

     negative rho (up, down):  3.344E-02 0.000E+00

     total cpu time spent up to now is      308.4 secs

     End of self-consistent calculation

          k = 0.0000 0.0000 0.0000 (  1435 PWs)   bands (ev):

   -33.8848 -24.6851 -24.6851 -20.4104 -20.4104 -19.9599 -11.0982  -2.0766
    -0.5180   2.0200   2.0200   2.4958   2.4958   4.2472   4.5299   4.9857

          k = 0.0000 0.0962 0.0000 (  1419 PWs)   bands (ev):

   -33.8765 -25.4473 -25.4412 -19.8215 -19.4080 -19.2971 -10.9332  -2.9252
    -0.6221   0.5586   0.7363   3.2990   4.1925   4.6537   5.1946   5.3431

          k = 0.0000 0.1925 0.0000 (  1451 PWs)   bands (ev):

   -33.8643 -26.7805 -26.7377 -19.3236 -17.4094 -17.1899 -10.4796  -4.9221
    -1.1198  -0.6806   0.2733   2.9881   5.3489   5.8137   5.9824   6.6468

          k = 0.0000 0.2887 0.0000 (  1473 PWs)   bands (ev):

   -33.8678 -27.9893 -27.8401 -18.4977 -15.2706 -14.8153  -9.9998  -6.7201
    -1.7079  -1.2942   0.1391   2.3998   5.3863   6.4960   6.8805   6.9867

          k = 0.0000 0.3849 0.0000 (  1477 PWs)   bands (ev):

   -33.8939 -28.8968 -28.5939 -17.3783 -13.4420 -12.8005 -10.5400  -6.6810
    -2.1123  -1.0354  -0.0653   1.6065   3.7372   5.7873   6.4895   8.0859

          k = 0.0000 0.4811 0.0000 (  1483 PWs)   bands (ev):

   -33.9311 -29.4555 -29.0131 -16.0771 -12.7961 -12.2945 -10.6933  -5.0739
    -2.1444  -0.6503   0.2141   0.7426   2.6752   3.3947   4.7427  10.1100

          k = 0.0000-0.5774 0.0000 (  1488 PWs)   bands (ev):

   -33.9484 -29.6449 -29.1449 -14.9586 -13.8555 -11.9298 -10.3078  -3.7752
    -2.2337  -1.1524   1.0913   1.1513   1.7346   2.8533   3.0030  12.0789

          k = 0.0833 0.1443 0.0000 (  1444 PWs)   bands (ev):

   -33.8674 -26.4207 -26.4025 -19.4709 -17.9712 -17.8287 -10.6198  -4.2189
    -1.5975   0.1238   0.3037   3.9373   4.4094   5.1294   5.6106   6.5251

          k = 0.0833 0.2406 0.0000 (  1470 PWs)   bands (ev):

   -33.8640 -27.5699 -27.5050 -18.8306 -15.9757 -15.7096 -10.1084  -5.9891
    -2.7439  -0.4217   0.2283   3.5322   5.6366   5.9348   6.1441   6.4532

          k = 0.0833 0.3368 0.0000 (  1485 PWs)   bands (ev):

   -33.8842 -28.5555 -28.3746 -17.8501 -14.0525 -13.5815 -10.0486  -6.8871
    -3.0406  -1.1326   0.2545   2.8366   4.2166   6.4679   7.1554   7.4127

          k = 0.0833 0.4330 0.0000 (  1487 PWs)   bands (ev):

   -33.9248 -29.2496 -28.9186 -16.6124 -12.7378 -12.2689 -10.8193  -5.8474
    -2.5137  -1.4484  -0.1127   1.9660   3.0490   4.3224   6.2698   9.2175

          k = 0.0833 0.5292 0.0000 (  1493 PWs)   bands (ev):

   -33.9579 -29.6061 -29.1711 -15.2434 -13.4477 -11.8658 -10.4857  -4.1089
    -2.0836  -1.2128  -0.5483   1.4681   1.7566   3.1720   4.9271  11.4023

          k = 0.1667 0.2887 0.0000 (  1472 PWs)   bands (ev):

   -33.8783 -28.3751 -28.3213 -17.9904 -14.1825 -14.0112  -9.8498  -6.6344
    -3.9339  -1.0179   0.3731   4.2557   4.7501   5.4621   7.2927   7.5268

          k = 0.1667 0.3849 0.0000 (  1483 PWs)   bands (ev):

   -33.9238 -29.0582 -28.9131 -16.8478 -12.8198 -12.5007 -10.3904  -6.1251
    -3.7638  -1.7671   0.2873   2.5047   4.0076   5.2862   7.0042   8.8759

          k = 0.1667 0.4811 0.0000 (  1489 PWs)   bands (ev):

   -33.9748 -29.5043 -29.2403 -15.5181 -12.7699 -11.7234 -10.8023  -4.6310
    -2.4395  -2.1827  -0.5056   1.3562   2.0679   4.4663   7.2804  10.6697

          k = 0.1667 0.5774 0.0000 (  1496 PWs)   bands (ev):

   -33.9983 -29.6582 -29.3446 -14.3013 -13.8043 -11.6307 -10.5874  -3.3437
    -2.3308  -1.8426  -0.3984  -0.0122   1.1673   4.2798   7.0142  11.4128

          k = 0.2500 0.4330 0.0000 (  1494 PWs)   bands (ev):

   -33.9832 -29.4191 -29.3066 -15.6248 -12.4622 -11.6624 -10.9297  -4.8697
    -3.1396  -2.3036   0.0815   0.8916   2.2773   5.5816   8.1085  10.2383

          k = 0.2500 0.5292 0.0000 (  1491 PWs)   bands (ev):

   -34.0270 -29.6242 -29.4890 -14.2521 -12.9820 -11.8848 -10.7924  -3.3281
    -2.4438  -1.7077  -0.8882   0.1145   0.2574   5.8139   9.0847   9.7146

          k = 0.3333 0.5774 0.0000 (  1482 PWs)   bands (ev):

   -34.0437 -29.6155 -29.6154 -13.3155 -12.7624 -12.7621 -10.7847  -2.2051
    -1.8692  -1.8691  -0.9136  -0.9136  -0.6646   7.6079   7.6081  10.6544

     the Fermi energy is     2.5372 ev

!    total energy              =     -45.95762098 Ry
     estimated scf accuracy    <          3.3E-09 Ry
     smearing contrib. (-TS)   =      -0.00008191 Ry
     internal energy E=F+TS    =     -45.95753907 Ry

     The total energy is F=E-TS. E is the sum of the following terms:
     one-electron contribution =   -1328.90149674 Ry
     hartree contribution      =     671.43306755 Ry
     xc contribution           =     -31.79299833 Ry
     ewald contribution        =     643.30388845 Ry

     convergence has been achieved in  21 iterations

     negative rho (up, down):  3.344E-02 0.000E+00

     Forces acting on atoms (cartesian axes, Ry/au):

     atom    1 type  1   force =    -0.00000000    0.00000000  -26.33920583
     atom    2 type  1   force =     0.00000000   -0.00000000   -2.93192584
     atom    3 type  1   force =    -0.00000000   -0.00000000  -25.52815700
     atom    4 type  1   force =     0.00000000    0.00000000   25.52708116
     atom    5 type  1   force =     0.00000000    0.00000000    2.93139308
     atom    6 type  1   force =     0.00000000    0.00000000   26.34081443

     Total force =    52.039410     Total SCF correction =     0.000099


     Computing stress (Cartesian axis) and pressure


     negative rho (up, down):  3.344E-02 0.000E+00
          total   stress  (Ry/bohr**3)                   (kbar)     P=     6358.65
   0.01600086   0.00000000   0.00000000         2353.81        0.00        0.00
   0.00000000   0.01600086  -0.00000000            0.00     2353.81       -0.00
   0.00000000  -0.00000000   0.09767397            0.00       -0.00    14368.34


     Writing all to output data dir /run/media/rfa/SATA/Skripsi/DFT/Graphene-copy/tmp/gr-abc-3L.save/ :
     XML data file, charge density, pseudopotentials, collected wavefunctions

     init_run     :      4.14s CPU      6.63s WALL (       1 calls)
     electrons    :    199.99s CPU    301.60s WALL (       1 calls)
     forces       :      2.33s CPU      3.22s WALL (       1 calls)
     stress       :      7.07s CPU     10.65s WALL (       1 calls)

     Called by init_run:
     wfcinit      :      3.78s CPU      5.87s WALL (       1 calls)
     potinit      :      0.01s CPU      0.01s WALL (       1 calls)
     hinit0       :      0.26s CPU      0.59s WALL (       1 calls)

     Called by electrons:
     c_bands      :    188.20s CPU    284.02s WALL (      21 calls)
     sum_band     :     10.45s CPU     15.14s WALL (      21 calls)
     v_of_rho     :      0.16s CPU      0.24s WALL (      22 calls)
     newd         :      1.01s CPU      1.69s WALL (      22 calls)
     mix_rho      :      0.12s CPU      0.25s WALL (      21 calls)

     Called by c_bands:
     init_us_2    :      0.17s CPU      0.15s WALL (     855 calls)
     cegterg      :    183.61s CPU    278.55s WALL (     399 calls)

     Called by *egterg:
     cdiaghg      :     54.84s CPU     79.69s WALL (    2609 calls)
     h_psi        :     58.71s CPU     89.64s WALL (    2628 calls)
     s_psi        :      8.21s CPU     11.53s WALL (    2628 calls)
     g_psi        :      0.06s CPU      0.04s WALL (    2210 calls)

     Called by h_psi:
     h_psi:calbec :     31.86s CPU     42.50s WALL (    2628 calls)
     vloc_psi     :     19.36s CPU     37.67s WALL (    2628 calls)
     add_vuspsi   :      7.40s CPU      9.37s WALL (    2628 calls)

     General routines
     calbec       :     48.31s CPU     65.86s WALL (    3350 calls)
     fft          :      0.35s CPU      0.79s WALL (     267 calls)
     ffts         :      0.02s CPU      0.03s WALL (      21 calls)
     fftw         :     21.14s CPU     41.37s WALL (   50366 calls)

     Parallel routines

     PWSCF        :   3m33.83s CPU   5m22.89s WALL


   This run was terminated on:  15:34:38  16Apr2025            

=------------------------------------------------------------------------------=
   JOB DONE.
=------------------------------------------------------------------------------=
