
     Program PWSCF v.7.4.1 starts on 16Apr2025 at 16: 8:59 

     This program is part of the open-source Quantum ESPRESSO suite
     for quantum simulation of materials; please cite
         "P. Giannozzi et al., J. Phys.:Condens. Matter 21 395502 (2009);
         "P. Giannozzi et al., J. Phys.:Condens. Matter 29 465901 (2017);
         "P. Giannozzi et al., J. Chem. Phys. 152 154105 (2020);
          URL http://www.quantum-espresso.org", 
     in publications or presentations arising from this work. More details at
     http://www.quantum-espresso.org/quote

     Parallel version (MPI), running on     7 processors

     MPI processes distributed on     1 nodes
     13197 MiB available memory on the printing compute node when the environment starts

     Waiting for input...
     Reading input from standard input

     Current dimensions of program PWSCF are:
     Max number of different atomic species (ntypx) = 10
     Max number of k-points (npk) =  40000
     Max angular momentum in pseudopotentials (lmaxx) =  4

     R & G space division:  proc/nbgrp/npool/nimage =       7
     Subspace diagonalization in iterative solution of the eigenvalue problem:
     a serial algorithm will be used


     Parallelization info
     --------------------
     sticks:   dense  smooth     PW     G-vecs:    dense   smooth      PW
     Min          67      67     21                 7315     7315    1227
     Max          68      68     22                 7338     7338    1238
     Sum         475     475    151                51311    51311    8639

     Using Slab Decomposition



     bravais-lattice index     =            4
     lattice parameter (alat)  =       4.6561  a.u.
     unit-cell volume          =     532.1899 (a.u.)^3
     number of atoms/cell      =            6
     number of atomic types    =            1
     number of electrons       =        24.00
     number of Kohn-Sham states=           16
     kinetic-energy cutoff     =      80.0000  Ry
     charge density cutoff     =     320.0000  Ry
     scf convergence threshold =      1.0E-08
     mixing beta               =       0.7000
     number of iterations used =            8  plain     mixing
     Exchange-correlation= PBE
                           (   1   4   3   4   0   0   0)

     celldm(1)=   4.656107  celldm(2)=   0.000000  celldm(3)=   6.087896
     celldm(4)=   0.000000  celldm(5)=   0.000000  celldm(6)=   0.000000

     crystal axes: (cart. coord. in units of alat)
               a(1) = (   1.000000   0.000000   0.000000 )  
               a(2) = (  -0.500000   0.866025   0.000000 )  
               a(3) = (   0.000000   0.000000   6.087896 )  

     reciprocal axes: (cart. coord. in units 2 pi/alat)
               b(1) = (  1.000000  0.577350 -0.000000 )  
               b(2) = (  0.000000  1.154701  0.000000 )  
               b(3) = (  0.000000 -0.000000  0.164260 )  


     PseudoPot. # 1 for C  read from file:
     /run/media/rfa/SATA/Skripsi/DFT/Graphene-copy/pseudo/C.pbe-n-rrkjus_psl.0.1.UPF
     MD5 check sum: 96a6a315177d77e6c95bf6fd3870f9e3
     Pseudo is Ultrasoft + core correction, Zval =  4.0
     Generated using &quot;atomic&quot; code by A. Dal Corso  v.6.3MaX
     Using radial grid of 1073 points,  4 beta functions with: 
                l(1) =   0
                l(2) =   0
                l(3) =   1
                l(4) =   1
     Q(r) pseudized with 0 coefficients 


     atomic species   valence    mass     pseudopotential
     C                 4.00    12.01070     C ( 1.00)

      6 Sym. Ops. (no inversion) found



   Cartesian axes

     site n.     atom                  positions (alat units)
         1        C      tau(   1) = (   0.0000000   0.5773503   3.0439478  )
         2        C      tau(   2) = (   0.5000000   0.2886751   3.0439478  )
         3        C      tau(   3) = (   0.0000000   0.0000000   3.2468777  )
         4        C      tau(   4) = (   0.0000000   0.5773503   3.2468777  )
         5        C      tau(   5) = (   0.5000000   0.2886751   3.4498075  )
         6        C      tau(   6) = (   0.0000000   0.0000000   3.4498075  )

     number of k points=    19  Marzari-Vanderbilt smearing, width (Ry)=  0.0200
                       cart. coord. in units 2pi/alat
        k(    1) = (   0.0000000   0.0000000   0.0000000), wk =   0.0138889
        k(    2) = (   0.0000000   0.0962250   0.0000000), wk =   0.0833333
        k(    3) = (   0.0000000   0.1924501   0.0000000), wk =   0.0833333
        k(    4) = (   0.0000000   0.2886751   0.0000000), wk =   0.0833333
        k(    5) = (   0.0000000   0.3849002   0.0000000), wk =   0.0833333
        k(    6) = (   0.0000000   0.4811252   0.0000000), wk =   0.0833333
        k(    7) = (   0.0000000  -0.5773503   0.0000000), wk =   0.0416667
        k(    8) = (   0.0833333   0.1443376   0.0000000), wk =   0.0833333
        k(    9) = (   0.0833333   0.2405626   0.0000000), wk =   0.1666667
        k(   10) = (   0.0833333   0.3367877   0.0000000), wk =   0.1666667
        k(   11) = (   0.0833333   0.4330127   0.0000000), wk =   0.1666667
        k(   12) = (   0.0833333   0.5292377   0.0000000), wk =   0.1666667
        k(   13) = (   0.1666667   0.2886751   0.0000000), wk =   0.0833333
        k(   14) = (   0.1666667   0.3849002   0.0000000), wk =   0.1666667
        k(   15) = (   0.1666667   0.4811252   0.0000000), wk =   0.1666667
        k(   16) = (   0.1666667   0.5773503   0.0000000), wk =   0.0833333
        k(   17) = (   0.2500000   0.4330127   0.0000000), wk =   0.0833333
        k(   18) = (   0.2500000   0.5292377   0.0000000), wk =   0.1666667
        k(   19) = (   0.3333333   0.5773503   0.0000000), wk =   0.0277778

     Dense  grid:    51311 G-vectors     FFT dimensions: (  27,  27, 162)

     Estimated max dynamical RAM per process >      16.48 MB

     Estimated total dynamical RAM >     115.34 MB

     Check: negative core charge=   -0.000001

     Initial potential from superposition of free atoms

     starting charge      23.9998, renormalised to      24.0000

     negative rho (up, down):  8.423E-05 0.000E+00
     Starting wfcs are   24 randomized atomic wfcs

     total cpu time spent up to now is        0.8 secs

     per-process dynamical memory:    16.5 Mb

     Self-consistent Calculation

     iteration #  1     ecut=    80.00 Ry     beta= 0.70
     Davidson diagonalization with overlap
     ethr =  1.00E-02,  avg # of iterations =  8.6

     negative rho (up, down):  2.400E-04 0.000E+00

     total cpu time spent up to now is        3.5 secs

     total energy              =     -41.34514373 Ry
     estimated scf accuracy    <      12.50537062 Ry

     iteration #  2     ecut=    80.00 Ry     beta= 0.70
     Davidson diagonalization with overlap
     ethr =  1.00E-02,  avg # of iterations = 11.8

     total cpu time spent up to now is        6.0 secs

     total energy              =     -40.38174472 Ry
     estimated scf accuracy    <      22.48737716 Ry

     iteration #  3     ecut=    80.00 Ry     beta= 0.70
     Davidson diagonalization with overlap
     c_bands:  2 eigenvalues not converged
     ethr =  1.00E-02,  avg # of iterations =  8.9

     total cpu time spent up to now is        7.8 secs

     total energy              =     -46.25268010 Ry
     estimated scf accuracy    <       1.14462336 Ry

     iteration #  4     ecut=    80.00 Ry     beta= 0.70
     Davidson diagonalization with overlap
     ethr =  4.77E-03,  avg # of iterations =  5.7

     total cpu time spent up to now is        9.1 secs

     total energy              =     -46.48985550 Ry
     estimated scf accuracy    <       0.42173203 Ry

     iteration #  5     ecut=    80.00 Ry     beta= 0.70
     Davidson diagonalization with overlap
     ethr =  1.76E-03,  avg # of iterations =  4.4

     total cpu time spent up to now is       10.2 secs

     total energy              =     -46.54283167 Ry
     estimated scf accuracy    <       0.17637492 Ry

     iteration #  6     ecut=    80.00 Ry     beta= 0.70
     Davidson diagonalization with overlap
     ethr =  7.35E-04,  avg # of iterations =  4.6

     total cpu time spent up to now is       11.4 secs

     total energy              =     -46.55658374 Ry
     estimated scf accuracy    <       0.11329204 Ry

     iteration #  7     ecut=    80.00 Ry     beta= 0.70
     Davidson diagonalization with overlap
     ethr =  4.72E-04,  avg # of iterations =  6.5

     negative rho (up, down):  1.073E-08 0.000E+00

     total cpu time spent up to now is       12.6 secs

     total energy              =     -46.56709797 Ry
     estimated scf accuracy    <       0.02206299 Ry

     iteration #  8     ecut=    80.00 Ry     beta= 0.70
     Davidson diagonalization with overlap
     ethr =  9.19E-05,  avg # of iterations = 12.4

     negative rho (up, down):  1.236E-04 0.000E+00

     total cpu time spent up to now is       15.2 secs

     total energy              =     -46.58543072 Ry
     estimated scf accuracy    <       0.00250978 Ry

     iteration #  9     ecut=    80.00 Ry     beta= 0.70
     Davidson diagonalization with overlap
     c_bands:  1 eigenvalues not converged
     c_bands:  1 eigenvalues not converged
     c_bands:  1 eigenvalues not converged
     ethr =  1.05E-05,  avg # of iterations = 16.0

     negative rho (up, down):  5.946E-05 0.000E+00

     total cpu time spent up to now is       18.2 secs

     total energy              =     -46.58947307 Ry
     estimated scf accuracy    <       0.00041987 Ry

     iteration # 10     ecut=    80.00 Ry     beta= 0.70
     Davidson diagonalization with overlap
     c_bands:  2 eigenvalues not converged
     c_bands:  1 eigenvalues not converged
     c_bands:  2 eigenvalues not converged
     ethr =  1.75E-06,  avg # of iterations = 13.9

     negative rho (up, down):  1.661E-04 0.000E+00

     total cpu time spent up to now is       20.8 secs

     total energy              =     -46.58960117 Ry
     estimated scf accuracy    <       0.00095876 Ry

     iteration # 11     ecut=    80.00 Ry     beta= 0.70
     Davidson diagonalization with overlap
     c_bands:  1 eigenvalues not converged
     ethr =  1.75E-06,  avg # of iterations =  8.5

     negative rho (up, down):  2.969E-04 0.000E+00

     total cpu time spent up to now is       22.2 secs

     total energy              =     -46.58982535 Ry
     estimated scf accuracy    <       0.00001367 Ry

     iteration # 12     ecut=    80.00 Ry     beta= 0.70
     Davidson diagonalization with overlap
     ethr =  5.70E-08,  avg # of iterations = 12.8

     negative rho (up, down):  3.107E-04 0.000E+00

     total cpu time spent up to now is       25.8 secs

     total energy              =     -46.58988176 Ry
     estimated scf accuracy    <       0.00003458 Ry

     iteration # 13     ecut=    80.00 Ry     beta= 0.70
     Davidson diagonalization with overlap
     ethr =  5.70E-08,  avg # of iterations =  2.0

     negative rho (up, down):  3.157E-04 0.000E+00

     total cpu time spent up to now is       26.7 secs

     total energy              =     -46.58988007 Ry
     estimated scf accuracy    <       0.00000707 Ry

     iteration # 14     ecut=    80.00 Ry     beta= 0.70
     Davidson diagonalization with overlap
     ethr =  2.95E-08,  avg # of iterations =  5.1

     negative rho (up, down):  3.119E-04 0.000E+00

     total cpu time spent up to now is       28.2 secs

     total energy              =     -46.58988461 Ry
     estimated scf accuracy    <       0.00000237 Ry

     iteration # 15     ecut=    80.00 Ry     beta= 0.70
     Davidson diagonalization with overlap
     ethr =  9.88E-09,  avg # of iterations =  3.5

     negative rho (up, down):  3.111E-04 0.000E+00

     total cpu time spent up to now is       29.4 secs

     total energy              =     -46.58988501 Ry
     estimated scf accuracy    <       0.00000074 Ry

     iteration # 16     ecut=    80.00 Ry     beta= 0.70
     Davidson diagonalization with overlap
     ethr =  3.08E-09,  avg # of iterations =  4.5

     negative rho (up, down):  3.109E-04 0.000E+00

     total cpu time spent up to now is       30.7 secs

     total energy              =     -46.58988520 Ry
     estimated scf accuracy    <       0.00000019 Ry

     iteration # 17     ecut=    80.00 Ry     beta= 0.70
     Davidson diagonalization with overlap
     ethr =  7.97E-10,  avg # of iterations =  5.6

     negative rho (up, down):  3.102E-04 0.000E+00

     total cpu time spent up to now is       32.1 secs

     total energy              =     -46.58988527 Ry
     estimated scf accuracy    <       0.00000008 Ry

     iteration # 18     ecut=    80.00 Ry     beta= 0.70
     Davidson diagonalization with overlap
     ethr =  3.24E-10,  avg # of iterations =  5.0

     negative rho (up, down):  3.108E-04 0.000E+00

     total cpu time spent up to now is       33.4 secs

     total energy              =     -46.58988531 Ry
     estimated scf accuracy    <       0.00000001 Ry

     iteration # 19     ecut=    80.00 Ry     beta= 0.70
     Davidson diagonalization with overlap
     ethr =  5.70E-11,  avg # of iterations =  6.1

     negative rho (up, down):  3.110E-04 0.000E+00

     total cpu time spent up to now is       34.9 secs

     End of self-consistent calculation

          k = 0.0000 0.0000 0.0000 (  6489 PWs)   bands (ev):

   -33.6719 -24.2703 -24.2703 -20.4471 -20.1264 -20.1264 -11.1657  -2.9894
    -0.0143   2.3326   2.3326   2.6573   2.6573   3.3082   5.8907   6.0624

          k = 0.0000 0.0962 0.0000 (  6493 PWs)   bands (ev):

   -33.6624 -25.0612 -25.0500 -20.2583 -19.1007 -19.0494 -10.9870  -3.8148
    -0.2488   0.7988   1.0711   2.9578   4.4174   4.5304   6.1116   6.3173

          k = 0.0000 0.1925 0.0000 (  6481 PWs)   bands (ev):

   -33.6422 -26.3953 -26.3782 -19.7453 -17.0671 -16.8727 -10.4713  -5.7228
    -1.0361  -0.4559   0.8242   2.4095   5.5732   6.2120   6.7610   6.9182

          k = 0.0000 0.2887 0.0000 (  6429 PWs)   bands (ev):

   -33.6305 -27.6069 -27.5033 -18.9213 -14.8911 -14.4994  -9.8594  -7.5575
    -1.6698  -1.0832   0.6594   1.6004   5.0115   7.2150   7.6491   7.9448

          k = 0.0000 0.3849 0.0000 (  6414 PWs)   bands (ev):

   -33.6420 -28.5187 -28.2891 -17.8294 -13.0372 -12.5880 -10.5601  -7.2546
    -1.9674  -0.8420   0.2003   0.6057   3.8105   6.1108   6.7213   9.1318

          k = 0.0000 0.4811 0.0000 (  6418 PWs)   bands (ev):

   -33.6683 -29.0787 -28.7315 -16.5624 -12.9168 -11.8672 -10.5580  -5.3973
    -1.8896  -1.1246   0.2807   0.3982   2.8334   3.8191   4.9737  10.9386

          k = 0.0000-0.5774 0.0000 (  6386 PWs)   bands (ev):

   -33.6822 -29.2672 -28.8713 -15.6603 -13.8893 -11.4876 -10.1939  -3.6713
    -2.8631  -1.4153   0.9139   1.2625   1.9201   3.2339   3.2661  12.5867

          k = 0.0833 0.1443 0.0000 (  6473 PWs)   bands (ev):

   -33.6478 -26.0467 -26.0206 -19.9123 -17.6330 -17.5151 -10.6382  -5.0883
    -1.5161   0.6595   0.6683   3.1315   4.2703   6.1607   6.6211   6.7412

          k = 0.0833 0.2406 0.0000 (  6444 PWs)   bands (ev):

   -33.6331 -27.2009 -27.1526 -19.2356 -15.6182 -15.3653 -10.0190  -6.8344
    -2.7633  -0.0381   0.8271   2.6976   4.9799   6.1268   7.4850   7.5263

          k = 0.0833 0.3368 0.0000 (  6420 PWs)   bands (ev):

   -33.6370 -28.1870 -28.0481 -18.2618 -13.6626 -13.2803  -9.9510  -7.6537
    -3.1200  -0.7810   0.8564   1.7785   4.2329   6.5946   7.4101   8.4640

          k = 0.0833 0.4330 0.0000 (  6423 PWs)   bands (ev):

   -33.6628 -28.8821 -28.6224 -17.0520 -12.4641 -12.1136 -10.7705  -6.2987
    -2.5546  -1.3106   0.0792   1.4189   3.2435   4.6772   6.3674   9.9590

          k = 0.0833 0.5292 0.0000 (  6418 PWs)   bands (ev):

   -33.6886 -29.2381 -28.8922 -15.7827 -13.5277 -11.4979 -10.3574  -4.3152
    -2.3729  -1.5757  -0.2490   1.6191   1.9927   3.4588   4.8943  11.8650

          k = 0.1667 0.2887 0.0000 (  6421 PWs)   bands (ev):

   -33.6371 -28.0343 -27.9766 -18.3941 -13.8539 -13.6461  -9.6944  -7.5707
    -3.9957  -0.6565   0.9831   3.2145   4.5158   5.5783   7.6753   8.3353

          k = 0.1667 0.3849 0.0000 (  6439 PWs)   bands (ev):

   -33.6644 -28.7199 -28.5960 -17.2685 -12.4809 -12.2724 -10.4591  -6.7879
    -3.8551  -1.4587   0.7681   2.0508   4.0017   5.4930   6.8176   9.2417

          k = 0.1667 0.4811 0.0000 (  6433 PWs)   bands (ev):

   -33.7015 -29.1649 -28.9493 -15.9471 -12.7610 -11.5869 -10.6946  -5.0663
    -2.6965  -1.8514  -0.3807   1.5024   2.3239   4.5779   7.0540  10.5158

          k = 0.1667 0.5774 0.0000 (  6408 PWs)   bands (ev):

   -33.7190 -29.3178 -29.0613 -14.9071 -13.7478 -11.4569 -10.4489  -3.2660
    -3.2638  -1.5196  -0.0228   0.0718   1.5653   4.4739   6.7076  11.8201

          k = 0.2500 0.4330 0.0000 (  6437 PWs)   bands (ev):

   -33.7078 -29.1042 -29.0019 -16.0061 -12.2192 -11.7392 -10.9172  -5.3541
    -3.1666  -2.0017   0.5188   0.7309   2.5328   5.6968   7.7141   9.9740

          k = 0.2500 0.5292 0.0000 (  6421 PWs)   bands (ev):

   -33.7421 -29.3146 -29.1961 -14.6077 -13.0258 -12.0147 -10.6397  -3.6479
    -2.4496  -1.5643  -0.7304   0.2928   0.6370   5.9864   8.6707   9.8780

          k = 0.3333 0.5774 0.0000 (  6408 PWs)   bands (ev):

   -33.7596 -29.3231 -29.3231 -13.2655 -13.2655 -12.9674 -10.6315  -2.1388
    -2.1387  -2.0771  -0.5869  -0.5869  -0.3052   7.7951   7.7954  10.1229

     the Fermi energy is     2.2409 ev

!    total energy              =     -46.58988532 Ry
     estimated scf accuracy    <          1.6E-09 Ry
     smearing contrib. (-TS)   =       0.00045094 Ry
     internal energy E=F+TS    =     -46.59033626 Ry

     The total energy is F=E-TS. E is the sum of the following terms:
     one-electron contribution =   -1330.19456027 Ry
     hartree contribution      =     672.18930592 Ry
     xc contribution           =     -31.88897034 Ry
     ewald contribution        =     643.30388843 Ry

     convergence has been achieved in  19 iterations

     negative rho (up, down):  3.110E-04 0.000E+00

     Forces acting on atoms (cartesian axes, Ry/au):

     atom    1 type  1   force =     0.00000000    0.00000000  -24.39717487
     atom    2 type  1   force =     0.00000000   -0.00000000   -2.86137393
     atom    3 type  1   force =    -0.00000000   -0.00000000  -23.48913244
     atom    4 type  1   force =     0.00000000    0.00000000   23.48914028
     atom    5 type  1   force =     0.00000000    0.00000000    2.86138252
     atom    6 type  1   force =     0.00000000    0.00000000   24.39715845

     Total force =    48.065554     Total SCF correction =     0.000096


     Computing stress (Cartesian axis) and pressure


     negative rho (up, down):  3.110E-04 0.000E+00
          total   stress  (Ry/bohr**3)                   (kbar)     P=     6445.67
   0.01733398   0.00000000   0.00000000         2549.92        0.00        0.00
   0.00000000   0.01733398  -0.00000000            0.00     2549.92       -0.00
   0.00000000  -0.00000000   0.09678231            0.00       -0.00    14237.17


     Writing all to output data dir /run/media/rfa/SATA/Skripsi/DFT/Graphene-copy/tmp/gr-abc-3L.save/ :
     XML data file, charge density, pseudopotentials, collected wavefunctions

     init_run     :      0.75s CPU      0.72s WALL (       1 calls)
     electrons    :     60.14s CPU     34.16s WALL (       1 calls)
     forces       :      0.27s CPU      0.15s WALL (       1 calls)
     stress       :      1.00s CPU      0.53s WALL (       1 calls)

     Called by init_run:
     wfcinit      :      0.54s CPU      0.38s WALL (       1 calls)
     potinit      :      0.01s CPU      0.02s WALL (       1 calls)
     hinit0       :      0.14s CPU      0.27s WALL (       1 calls)

     Called by electrons:
     c_bands      :     53.62s CPU     30.42s WALL (      19 calls)
     sum_band     :      5.83s CPU      3.11s WALL (      19 calls)
     v_of_rho     :      0.25s CPU      0.26s WALL (      20 calls)
     newd         :      0.26s CPU      0.22s WALL (      20 calls)
     mix_rho      :      0.16s CPU      0.12s WALL (      19 calls)

     Called by c_bands:
     init_us_2    :      1.25s CPU      0.64s WALL (     779 calls)
     cegterg      :     52.03s CPU     29.58s WALL (     361 calls)

     Called by *egterg:
     cdiaghg      :      2.54s CPU      1.33s WALL (    3134 calls)
     h_psi        :     37.54s CPU     22.06s WALL (    3153 calls)
     s_psi        :      2.09s CPU      1.12s WALL (    3153 calls)
     g_psi        :      0.34s CPU      0.17s WALL (    2773 calls)

     Called by h_psi:
     h_psi:calbec :      4.60s CPU      2.80s WALL (    3153 calls)
     vloc_psi     :     29.73s CPU     17.56s WALL (    3153 calls)
     add_vuspsi   :      2.76s CPU      1.45s WALL (    3153 calls)

     General routines
     calbec       :      5.53s CPU      3.29s WALL (    3837 calls)
     fft          :      0.25s CPU      0.38s WALL (     245 calls)
     ffts         :      0.02s CPU      0.01s WALL (      19 calls)
     fftw         :     29.59s CPU     17.34s WALL (   56078 calls)

     Parallel routines

     PWSCF        :   1m 2.29s CPU     36.10s WALL


   This run was terminated on:  16: 9:35  16Apr2025            

=------------------------------------------------------------------------------=
   JOB DONE.
=------------------------------------------------------------------------------=
