
     Program PWSCF v.7.4.1 starts on 16Apr2025 at 16: 6:38 

     This program is part of the open-source Quantum ESPRESSO suite
     for quantum simulation of materials; please cite
         "P. Giannozzi et al., J. Phys.:Condens. Matter 21 395502 (2009);
         "P. Giannozzi et al., J. Phys.:Condens. Matter 29 465901 (2017);
         "P. Giannozzi et al., J. Chem. Phys. 152 154105 (2020);
          URL http://www.quantum-espresso.org", 
     in publications or presentations arising from this work. More details at
     http://www.quantum-espresso.org/quote

     Parallel version (MPI), running on     7 processors

     MPI processes distributed on     1 nodes
     13252 MiB available memory on the printing compute node when the environment starts

     Waiting for input...
     Reading input from standard input

     Current dimensions of program PWSCF are:
     Max number of different atomic species (ntypx) = 10
     Max number of k-points (npk) =  40000
     Max angular momentum in pseudopotentials (lmaxx) =  4

     R & G space division:  proc/nbgrp/npool/nimage =       7
     Subspace diagonalization in iterative solution of the eigenvalue problem:
     a serial algorithm will be used


     Parallelization info
     --------------------
     sticks:   dense  smooth     PW     G-vecs:    dense   smooth      PW
     Min          43      43     13                 3639     3639     639
     Max          43      43     13                 3649     3649     655
     Sum         301     301     91                25507    25507    4493

     Using Slab Decomposition



     bravais-lattice index     =            4
     lattice parameter (alat)  =       4.6561  a.u.
     unit-cell volume          =     532.1899 (a.u.)^3
     number of atoms/cell      =            6
     number of atomic types    =            1
     number of electrons       =        24.00
     number of Kohn-Sham states=           16
     kinetic-energy cutoff     =      50.0000  Ry
     charge density cutoff     =     200.0000  Ry
     scf convergence threshold =      1.0E-08
     mixing beta               =       0.7000
     number of iterations used =            8  plain     mixing
     Exchange-correlation= PBE
                           (   1   4   3   4   0   0   0)

     celldm(1)=   4.656107  celldm(2)=   0.000000  celldm(3)=   6.087896
     celldm(4)=   0.000000  celldm(5)=   0.000000  celldm(6)=   0.000000

     crystal axes: (cart. coord. in units of alat)
               a(1) = (   1.000000   0.000000   0.000000 )  
               a(2) = (  -0.500000   0.866025   0.000000 )  
               a(3) = (   0.000000   0.000000   6.087896 )  

     reciprocal axes: (cart. coord. in units 2 pi/alat)
               b(1) = (  1.000000  0.577350 -0.000000 )  
               b(2) = (  0.000000  1.154701  0.000000 )  
               b(3) = (  0.000000 -0.000000  0.164260 )  


     PseudoPot. # 1 for C  read from file:
     /run/media/rfa/SATA/Skripsi/DFT/Graphene-copy/pseudo/C.pbe-n-rrkjus_psl.0.1.UPF
     MD5 check sum: 96a6a315177d77e6c95bf6fd3870f9e3
     Pseudo is Ultrasoft + core correction, Zval =  4.0
     Generated using &quot;atomic&quot; code by A. Dal Corso  v.6.3MaX
     Using radial grid of 1073 points,  4 beta functions with: 
                l(1) =   0
                l(2) =   0
                l(3) =   1
                l(4) =   1
     Q(r) pseudized with 0 coefficients 


     atomic species   valence    mass     pseudopotential
     C                 4.00    12.01070     C ( 1.00)

      6 Sym. Ops. (no inversion) found



   Cartesian axes

     site n.     atom                  positions (alat units)
         1        C      tau(   1) = (   0.0000000   0.5773503   3.0439478  )
         2        C      tau(   2) = (   0.5000000   0.2886751   3.0439478  )
         3        C      tau(   3) = (   0.0000000   0.0000000   3.2468777  )
         4        C      tau(   4) = (   0.0000000   0.5773503   3.2468777  )
         5        C      tau(   5) = (   0.5000000   0.2886751   3.4498075  )
         6        C      tau(   6) = (   0.0000000   0.0000000   3.4498075  )

     number of k points=    19  Marzari-Vanderbilt smearing, width (Ry)=  0.0200
                       cart. coord. in units 2pi/alat
        k(    1) = (   0.0000000   0.0000000   0.0000000), wk =   0.0138889
        k(    2) = (   0.0000000   0.0962250   0.0000000), wk =   0.0833333
        k(    3) = (   0.0000000   0.1924501   0.0000000), wk =   0.0833333
        k(    4) = (   0.0000000   0.2886751   0.0000000), wk =   0.0833333
        k(    5) = (   0.0000000   0.3849002   0.0000000), wk =   0.0833333
        k(    6) = (   0.0000000   0.4811252   0.0000000), wk =   0.0833333
        k(    7) = (   0.0000000  -0.5773503   0.0000000), wk =   0.0416667
        k(    8) = (   0.0833333   0.1443376   0.0000000), wk =   0.0833333
        k(    9) = (   0.0833333   0.2405626   0.0000000), wk =   0.1666667
        k(   10) = (   0.0833333   0.3367877   0.0000000), wk =   0.1666667
        k(   11) = (   0.0833333   0.4330127   0.0000000), wk =   0.1666667
        k(   12) = (   0.0833333   0.5292377   0.0000000), wk =   0.1666667
        k(   13) = (   0.1666667   0.2886751   0.0000000), wk =   0.0833333
        k(   14) = (   0.1666667   0.3849002   0.0000000), wk =   0.1666667
        k(   15) = (   0.1666667   0.4811252   0.0000000), wk =   0.1666667
        k(   16) = (   0.1666667   0.5773503   0.0000000), wk =   0.0833333
        k(   17) = (   0.2500000   0.4330127   0.0000000), wk =   0.0833333
        k(   18) = (   0.2500000   0.5292377   0.0000000), wk =   0.1666667
        k(   19) = (   0.3333333   0.5773503   0.0000000), wk =   0.0277778

     Dense  grid:    25507 G-vectors     FFT dimensions: (  24,  24, 128)

     Estimated max dynamical RAM per process >       8.45 MB

     Estimated total dynamical RAM >      59.17 MB

     Check: negative core charge=   -0.000007

     Initial potential from superposition of free atoms

     starting charge      23.9998, renormalised to      24.0000

     negative rho (up, down):  4.426E-04 0.000E+00
     Starting wfcs are   24 randomized atomic wfcs

     total cpu time spent up to now is        0.7 secs

     per-process dynamical memory:    12.0 Mb

     Self-consistent Calculation

     iteration #  1     ecut=    50.00 Ry     beta= 0.70
     Davidson diagonalization with overlap
     ethr =  1.00E-02,  avg # of iterations =  8.7

     negative rho (up, down):  1.494E-03 0.000E+00

     total cpu time spent up to now is        1.8 secs

     total energy              =     -41.38750149 Ry
     estimated scf accuracy    <      12.35273967 Ry

     iteration #  2     ecut=    50.00 Ry     beta= 0.70
     Davidson diagonalization with overlap
     c_bands:  3 eigenvalues not converged
     ethr =  1.00E-02,  avg # of iterations = 11.4

     total cpu time spent up to now is        2.8 secs

     total energy              =     -39.37677576 Ry
     estimated scf accuracy    <      25.67654109 Ry

     iteration #  3     ecut=    50.00 Ry     beta= 0.70
     Davidson diagonalization with overlap
     c_bands:  1 eigenvalues not converged
     ethr =  1.00E-02,  avg # of iterations =  9.6

     total cpu time spent up to now is        3.7 secs

     total energy              =     -46.32182368 Ry
     estimated scf accuracy    <       1.29301112 Ry

     iteration #  4     ecut=    50.00 Ry     beta= 0.70
     Davidson diagonalization with overlap
     ethr =  5.39E-03,  avg # of iterations =  4.6

     total cpu time spent up to now is        4.2 secs

     total energy              =     -46.47697899 Ry
     estimated scf accuracy    <       0.49994411 Ry

     iteration #  5     ecut=    50.00 Ry     beta= 0.70
     Davidson diagonalization with overlap
     ethr =  2.08E-03,  avg # of iterations =  3.5

     total cpu time spent up to now is        4.6 secs

     total energy              =     -46.46449314 Ry
     estimated scf accuracy    <       0.22208794 Ry

     iteration #  6     ecut=    50.00 Ry     beta= 0.70
     Davidson diagonalization with overlap
     ethr =  9.25E-04,  avg # of iterations =  4.8

     total cpu time spent up to now is        5.2 secs

     total energy              =     -46.51365905 Ry
     estimated scf accuracy    <       0.07906518 Ry

     iteration #  7     ecut=    50.00 Ry     beta= 0.70
     Davidson diagonalization with overlap
     ethr =  3.29E-04,  avg # of iterations =  5.3

     total cpu time spent up to now is        5.8 secs

     total energy              =     -46.53997669 Ry
     estimated scf accuracy    <       0.03764721 Ry

     iteration #  8     ecut=    50.00 Ry     beta= 0.70
     Davidson diagonalization with overlap
     c_bands:  1 eigenvalues not converged
     ethr =  1.57E-04,  avg # of iterations =  5.2

     negative rho (up, down):  3.261E-07 0.000E+00

     total cpu time spent up to now is        6.3 secs

     total energy              =     -46.53247454 Ry
     estimated scf accuracy    <       0.03577404 Ry

     iteration #  9     ecut=    50.00 Ry     beta= 0.70
     Davidson diagonalization with overlap
     ethr =  1.49E-04,  avg # of iterations =  9.4

     negative rho (up, down):  8.740E-07 0.000E+00

     total cpu time spent up to now is        7.0 secs

     total energy              =     -46.53329729 Ry
     estimated scf accuracy    <       0.02792254 Ry

     iteration # 10     ecut=    50.00 Ry     beta= 0.70
     Davidson diagonalization with overlap
     ethr =  1.16E-04,  avg # of iterations =  1.6

     negative rho (up, down):  5.592E-05 0.000E+00

     total cpu time spent up to now is        7.3 secs

     total energy              =     -46.56096780 Ry
     estimated scf accuracy    <       0.01254448 Ry

     iteration # 11     ecut=    50.00 Ry     beta= 0.70
     Davidson diagonalization with overlap
     ethr =  5.23E-05,  avg # of iterations = 13.4

     negative rho (up, down):  8.972E-04 0.000E+00

     total cpu time spent up to now is        8.5 secs

     total energy              =     -46.58493550 Ry
     estimated scf accuracy    <       0.12612035 Ry

     iteration # 12     ecut=    50.00 Ry     beta= 0.70
     Davidson diagonalization with overlap
     ethr =  5.23E-05,  avg # of iterations =  2.9

     negative rho (up, down):  9.749E-04 0.000E+00

     total cpu time spent up to now is        8.9 secs

     total energy              =     -46.54175985 Ry
     estimated scf accuracy    <       0.13434387 Ry

     iteration # 13     ecut=    50.00 Ry     beta= 0.70
     Davidson diagonalization with overlap
     ethr =  5.23E-05,  avg # of iterations =  1.9

     negative rho (up, down):  1.032E-03 0.000E+00

     total cpu time spent up to now is        9.3 secs

     total energy              =     -46.51968475 Ry
     estimated scf accuracy    <       0.04444560 Ry

     iteration # 14     ecut=    50.00 Ry     beta= 0.70
     Davidson diagonalization with overlap
     ethr =  5.23E-05,  avg # of iterations = 11.0

     negative rho (up, down):  1.022E-03 0.000E+00

     total cpu time spent up to now is       10.2 secs

     total energy              =     -46.53396771 Ry
     estimated scf accuracy    <       0.00131932 Ry

     iteration # 15     ecut=    50.00 Ry     beta= 0.70
     Davidson diagonalization with overlap
     c_bands:  2 eigenvalues not converged
     ethr =  5.50E-06,  avg # of iterations =  9.9

     negative rho (up, down):  1.037E-03 0.000E+00

     total cpu time spent up to now is       11.2 secs

     total energy              =     -46.53599824 Ry
     estimated scf accuracy    <       0.00128360 Ry

     iteration # 16     ecut=    50.00 Ry     beta= 0.70
     Davidson diagonalization with overlap
     ethr =  5.35E-06,  avg # of iterations =  2.6

     negative rho (up, down):  1.091E-03 0.000E+00

     total cpu time spent up to now is       11.6 secs

     total energy              =     -46.53513508 Ry
     estimated scf accuracy    <       0.00169939 Ry

     iteration # 17     ecut=    50.00 Ry     beta= 0.70
     Davidson diagonalization with overlap
     ethr =  5.35E-06,  avg # of iterations =  4.3

     negative rho (up, down):  1.087E-03 0.000E+00

     total cpu time spent up to now is       12.1 secs

     total energy              =     -46.53545477 Ry
     estimated scf accuracy    <       0.00002984 Ry

     iteration # 18     ecut=    50.00 Ry     beta= 0.70
     Davidson diagonalization with overlap
     c_bands:  2 eigenvalues not converged
     c_bands:  1 eigenvalues not converged
     c_bands:  1 eigenvalues not converged
     c_bands:  1 eigenvalues not converged
     c_bands:  1 eigenvalues not converged
     c_bands:  1 eigenvalues not converged
     ethr =  1.24E-07,  avg # of iterations = 16.1

     negative rho (up, down):  1.081E-03 0.000E+00

     total cpu time spent up to now is       13.8 secs

     total energy              =     -46.53566584 Ry
     estimated scf accuracy    <       0.00001889 Ry

     iteration # 19     ecut=    50.00 Ry     beta= 0.70
     Davidson diagonalization with overlap
     ethr =  7.87E-08,  avg # of iterations =  2.0

     negative rho (up, down):  1.095E-03 0.000E+00

     total cpu time spent up to now is       14.2 secs

     total energy              =     -46.53566865 Ry
     estimated scf accuracy    <       0.00000248 Ry

     iteration # 20     ecut=    50.00 Ry     beta= 0.70
     Davidson diagonalization with overlap
     ethr =  1.03E-08,  avg # of iterations =  6.2

     negative rho (up, down):  1.097E-03 0.000E+00

     total cpu time spent up to now is       14.9 secs

     total energy              =     -46.53567193 Ry
     estimated scf accuracy    <       0.00000131 Ry

     iteration # 21     ecut=    50.00 Ry     beta= 0.70
     Davidson diagonalization with overlap
     ethr =  5.46E-09,  avg # of iterations =  6.0

     negative rho (up, down):  1.092E-03 0.000E+00

     total cpu time spent up to now is       15.6 secs

     total energy              =     -46.53566937 Ry
     estimated scf accuracy    <       0.00000725 Ry

     iteration # 22     ecut=    50.00 Ry     beta= 0.70
     Davidson diagonalization with overlap
     ethr =  5.46E-09,  avg # of iterations =  3.6

     negative rho (up, down):  1.093E-03 0.000E+00

     total cpu time spent up to now is       16.2 secs

     total energy              =     -46.53567042 Ry
     estimated scf accuracy    <       0.00000017 Ry

     iteration # 23     ecut=    50.00 Ry     beta= 0.70
     Davidson diagonalization with overlap
     ethr =  6.93E-10,  avg # of iterations =  9.7

     negative rho (up, down):  1.094E-03 0.000E+00

     total cpu time spent up to now is       17.3 secs

     total energy              =     -46.53567073 Ry
     estimated scf accuracy    <       0.00000023 Ry

     iteration # 24     ecut=    50.00 Ry     beta= 0.70
     Davidson diagonalization with overlap
     ethr =  6.93E-10,  avg # of iterations =  1.0

     negative rho (up, down):  1.095E-03 0.000E+00

     total cpu time spent up to now is       17.6 secs

     total energy              =     -46.53567072 Ry
     estimated scf accuracy    <       0.00000005 Ry

     iteration # 25     ecut=    50.00 Ry     beta= 0.70
     Davidson diagonalization with overlap
     ethr =  2.29E-10,  avg # of iterations =  2.2

     negative rho (up, down):  1.095E-03 0.000E+00

     total cpu time spent up to now is       18.0 secs

     total energy              =     -46.53567072 Ry
     estimated scf accuracy    <       0.00000002 Ry

     iteration # 26     ecut=    50.00 Ry     beta= 0.70
     Davidson diagonalization with overlap
     ethr =  6.33E-11,  avg # of iterations =  5.3

     negative rho (up, down):  1.095E-03 0.000E+00

     total cpu time spent up to now is       18.7 secs

     End of self-consistent calculation

          k = 0.0000 0.0000 0.0000 (  3135 PWs)   bands (ev):

   -33.6791 -24.2898 -24.2898 -20.4134 -20.1334 -20.1334 -11.1533  -2.9137
    -0.0394   2.3332   2.3332   2.6570   2.6570   3.3510   5.6993   5.9971

          k = 0.0000 0.0962 0.0000 (  3173 PWs)   bands (ev):

   -33.6696 -25.0789 -25.0680 -20.2280 -19.1098 -19.0583 -10.9758  -3.7454
    -0.2619   0.7983   1.0530   2.9788   4.4179   4.5742   5.9225   6.2244

          k = 0.0000 0.1925 0.0000 (  3183 PWs)   bands (ev):

   -33.6492 -26.4124 -26.3931 -19.7151 -17.0779 -16.8828 -10.4633  -5.6581
    -1.0293  -0.4567   0.7879   2.4389   5.6395   6.2129   6.5976   6.8072

          k = 0.0000 0.2887 0.0000 (  3177 PWs)   bands (ev):

   -33.6374 -27.6230 -27.5156 -18.8912 -14.9028 -14.5088  -9.8614  -7.4937
    -1.6585  -1.0837   0.6314   1.6341   5.0346   7.2165   7.6150   7.7607

          k = 0.0000 0.3849 0.0000 (  3189 PWs)   bands (ev):

   -33.6493 -28.5349 -28.2996 -17.7982 -13.0492 -12.5910 -10.5520  -7.2117
    -1.9599  -0.8429   0.2459   0.5896   3.8059   6.1066   6.7220   9.0939

          k = 0.0000 0.4811 0.0000 (  3207 PWs)   bands (ev):

   -33.6763 -29.0951 -28.7406 -16.5288 -12.9001 -11.8800 -10.5616  -5.3685
    -1.8803  -1.0757   0.2685   0.3972   2.8269   3.8048   4.9720  10.9153

          k = 0.0000-0.5774 0.0000 (  3208 PWs)   bands (ev):

   -33.6902 -29.2837 -28.8801 -15.6158 -13.8795 -11.4996 -10.1975  -3.6789
    -2.7772  -1.4219   0.9101   1.2684   1.9205   3.2304   3.2434  12.5632

          k = 0.0833 0.1443 0.0000 (  3191 PWs)   bands (ev):

   -33.6549 -26.0625 -26.0379 -19.8831 -17.6444 -17.5249 -10.6294  -5.0248
    -1.5086   0.6372   0.6375   3.1833   4.2931   6.1632   6.4519   6.6398

          k = 0.0833 0.2406 0.0000 (  3176 PWs)   bands (ev):

   -33.6400 -27.2156 -27.1671 -19.2055 -15.6300 -15.3755 -10.0165  -6.7674
    -2.7499  -0.0613   0.7907   2.7588   5.0280   6.1223   7.3291   7.4029

          k = 0.0833 0.3368 0.0000 (  3174 PWs)   bands (ev):

   -33.6441 -28.2020 -28.0598 -18.2309 -13.6737 -13.2882  -9.9487  -7.5934
    -3.1024  -0.8001   0.8187   1.8479   4.2369   6.6008   7.4098   8.4251

          k = 0.0833 0.4330 0.0000 (  3188 PWs)   bands (ev):

   -33.6707 -28.8971 -28.6323 -17.0199 -12.4622 -12.1158 -10.7680  -6.2609
    -2.5328  -1.3150   0.0769   1.4382   3.2362   4.6697   6.3730   9.9510

          k = 0.0833 0.5292 0.0000 (  3187 PWs)   bands (ev):

   -33.6970 -29.2529 -28.9009 -15.7442 -13.5127 -11.5055 -10.3609  -4.2887
    -2.3085  -1.5894  -0.2598   1.6173   1.9906   3.4478   4.9017  11.8787

          k = 0.1667 0.2887 0.0000 (  3165 PWs)   bands (ev):

   -33.6445 -28.0468 -27.9905 -18.3620 -13.8641 -13.6545  -9.6971  -7.5008
    -3.9809  -0.6783   0.9445   3.2900   4.5504   5.5674   7.6699   8.2826

          k = 0.1667 0.3849 0.0000 (  3167 PWs)   bands (ev):

   -33.6723 -28.7325 -28.6073 -17.2354 -12.4874 -12.2766 -10.4452  -6.7403
    -3.8387  -1.4723   0.7405   2.0833   4.0174   5.4923   6.8346   9.2513

          k = 0.1667 0.4811 0.0000 (  3169 PWs)   bands (ev):

   -33.7101 -29.1776 -28.9585 -15.9131 -12.7476 -11.5836 -10.6961  -5.0284
    -2.6713  -1.8603  -0.3853   1.4922   2.3261   4.5844   7.0724  10.5598

          k = 0.1667 0.5774 0.0000 (  3186 PWs)   bands (ev):

   -33.7281 -29.3308 -29.0701 -14.8631 -13.7388 -11.4545 -10.4531  -3.2669
    -3.1919  -1.5399  -0.0308   0.0799   1.5464   4.4774   6.7270  11.8862

          k = 0.2500 0.4330 0.0000 (  3157 PWs)   bands (ev):

   -33.7167 -29.1150 -29.0127 -15.9732 -12.2212 -11.7193 -10.9152  -5.3168
    -3.1523  -2.0088   0.4937   0.7441   2.5340   5.7087   7.7416  10.0211

          k = 0.2500 0.5292 0.0000 (  3158 PWs)   bands (ev):

   -33.7514 -29.3253 -29.2052 -14.5737 -13.0107 -11.9991 -10.6439  -3.6154
    -2.4374  -1.5625  -0.7358   0.2857   0.6287   5.9923   8.7022   9.8816

          k = 0.3333 0.5774 0.0000 (  3171 PWs)   bands (ev):

   -33.7693 -29.3328 -29.3328 -13.2289 -13.2289 -12.9750 -10.6360  -2.1105
    -2.1105  -2.0796  -0.6029  -0.6029  -0.3094   7.7982   7.7983  10.1594

     the Fermi energy is     2.2531 ev

!    total energy              =     -46.53567073 Ry
     estimated scf accuracy    <          1.9E-09 Ry
     smearing contrib. (-TS)   =       0.00045311 Ry
     internal energy E=F+TS    =     -46.53612385 Ry

     The total energy is F=E-TS. E is the sum of the following terms:
     one-electron contribution =   -1330.09835074 Ry
     hartree contribution      =     672.13964515 Ry
     xc contribution           =     -31.88130563 Ry
     ewald contribution        =     643.30388738 Ry

     convergence has been achieved in  26 iterations

     negative rho (up, down):  1.095E-03 0.000E+00

     Forces acting on atoms (cartesian axes, Ry/au):

     atom    1 type  1   force =     0.00000000    0.00000000  -24.60029318
     atom    2 type  1   force =     0.00000000    0.00000000   -2.86160293
     atom    3 type  1   force =     0.00000000    0.00000000  -23.69566060
     atom    4 type  1   force =     0.00000000    0.00000000   23.69563126
     atom    5 type  1   force =     0.00000000    0.00000000    2.86167119
     atom    6 type  1   force =    -0.00000000   -0.00000000   24.60025426

     Total force =    48.473623     Total SCF correction =     0.000111


     Computing stress (Cartesian axis) and pressure


     negative rho (up, down):  1.095E-03 0.000E+00
          total   stress  (Ry/bohr**3)                   (kbar)     P=     6422.32
   0.01713878  -0.00000000   0.00000000         2521.20       -0.00        0.00
  -0.00000000   0.01713878  -0.00000000           -0.00     2521.20       -0.00
   0.00000000  -0.00000000   0.09669663            0.00       -0.00    14224.56


     Writing all to output data dir /run/media/rfa/SATA/Skripsi/DFT/Graphene-copy/tmp/gr-abc-3L.save/ :
     XML data file, charge density, pseudopotentials, collected wavefunctions

     init_run     :      0.57s CPU      0.62s WALL (       1 calls)
     electrons    :     34.44s CPU     18.05s WALL (       1 calls)
     forces       :      0.09s CPU      0.05s WALL (       1 calls)
     stress       :      0.27s CPU      0.16s WALL (       1 calls)

     Called by init_run:
     wfcinit      :      0.32s CPU      0.18s WALL (       1 calls)
     potinit      :      0.01s CPU      0.01s WALL (       1 calls)
     hinit0       :      0.22s CPU      0.40s WALL (       1 calls)

     Called by electrons:
     c_bands      :     30.69s CPU     15.97s WALL (      26 calls)
     sum_band     :      3.20s CPU      1.66s WALL (      26 calls)
     v_of_rho     :      0.23s CPU      0.18s WALL (      27 calls)
     newd         :      0.17s CPU      0.15s WALL (      27 calls)
     mix_rho      :      0.13s CPU      0.06s WALL (      26 calls)

     Called by c_bands:
     init_us_2    :      0.53s CPU      0.28s WALL (    1045 calls)
     cegterg      :     29.76s CPU     15.45s WALL (     494 calls)

     Called by *egterg:
     cdiaghg      :      2.79s CPU      1.42s WALL (    3580 calls)
     h_psi        :     22.25s CPU     11.55s WALL (    3599 calls)
     s_psi        :      0.58s CPU      0.30s WALL (    3599 calls)
     g_psi        :      0.19s CPU      0.10s WALL (    3086 calls)

     Called by h_psi:
     h_psi:calbec :      2.76s CPU      1.43s WALL (    3599 calls)
     vloc_psi     :     18.18s CPU      9.42s WALL (    3599 calls)
     add_vuspsi   :      1.03s CPU      0.53s WALL (    3599 calls)

     General routines
     calbec       :      3.13s CPU      1.63s WALL (    4416 calls)
     fft          :      0.27s CPU      0.45s WALL (     322 calls)
     ffts         :      0.01s CPU      0.01s WALL (      26 calls)
     fftw         :     17.17s CPU      8.86s WALL (   71072 calls)

     Parallel routines

     PWSCF        :     35.45s CPU     19.19s WALL


   This run was terminated on:  16: 6:57  16Apr2025            

=------------------------------------------------------------------------------=
   JOB DONE.
=------------------------------------------------------------------------------=
