
     Program PWSCF v.7.4.1 starts on 16Apr2025 at 16: 6:26 

     This program is part of the open-source Quantum ESPRESSO suite
     for quantum simulation of materials; please cite
         "P. Giannozzi et al., J. Phys.:Condens. Matter 21 395502 (2009);
         "P. Giannozzi et al., J. Phys.:Condens. Matter 29 465901 (2017);
         "P. Giannozzi et al., J. Chem. Phys. 152 154105 (2020);
          URL http://www.quantum-espresso.org", 
     in publications or presentations arising from this work. More details at
     http://www.quantum-espresso.org/quote

     Parallel version (MPI), running on     7 processors

     MPI processes distributed on     1 nodes
     13255 MiB available memory on the printing compute node when the environment starts

     Waiting for input...
     Reading input from standard input

     Current dimensions of program PWSCF are:
     Max number of different atomic species (ntypx) = 10
     Max number of k-points (npk) =  40000
     Max angular momentum in pseudopotentials (lmaxx) =  4

     R & G space division:  proc/nbgrp/npool/nimage =       7
     Subspace diagonalization in iterative solution of the eigenvalue problem:
     a serial algorithm will be used


     Parallelization info
     --------------------
     sticks:   dense  smooth     PW     G-vecs:    dense   smooth      PW
     Min          37      37     12                 3088     3088     566
     Max          38      38     13                 3095     3095     589
     Sum         265     265     85                21637    21637    3993

     Using Slab Decomposition



     bravais-lattice index     =            4
     lattice parameter (alat)  =       4.6561  a.u.
     unit-cell volume          =     532.1899 (a.u.)^3
     number of atoms/cell      =            6
     number of atomic types    =            1
     number of electrons       =        24.00
     number of Kohn-Sham states=           16
     kinetic-energy cutoff     =      45.0000  Ry
     charge density cutoff     =     180.0000  Ry
     scf convergence threshold =      1.0E-08
     mixing beta               =       0.7000
     number of iterations used =            8  plain     mixing
     Exchange-correlation= PBE
                           (   1   4   3   4   0   0   0)

     celldm(1)=   4.656107  celldm(2)=   0.000000  celldm(3)=   6.087896
     celldm(4)=   0.000000  celldm(5)=   0.000000  celldm(6)=   0.000000

     crystal axes: (cart. coord. in units of alat)
               a(1) = (   1.000000   0.000000   0.000000 )  
               a(2) = (  -0.500000   0.866025   0.000000 )  
               a(3) = (   0.000000   0.000000   6.087896 )  

     reciprocal axes: (cart. coord. in units 2 pi/alat)
               b(1) = (  1.000000  0.577350 -0.000000 )  
               b(2) = (  0.000000  1.154701  0.000000 )  
               b(3) = (  0.000000 -0.000000  0.164260 )  


     PseudoPot. # 1 for C  read from file:
     /run/media/rfa/SATA/Skripsi/DFT/Graphene-copy/pseudo/C.pbe-n-rrkjus_psl.0.1.UPF
     MD5 check sum: 96a6a315177d77e6c95bf6fd3870f9e3
     Pseudo is Ultrasoft + core correction, Zval =  4.0
     Generated using &quot;atomic&quot; code by A. Dal Corso  v.6.3MaX
     Using radial grid of 1073 points,  4 beta functions with: 
                l(1) =   0
                l(2) =   0
                l(3) =   1
                l(4) =   1
     Q(r) pseudized with 0 coefficients 


     atomic species   valence    mass     pseudopotential
     C                 4.00    12.01070     C ( 1.00)

      6 Sym. Ops. (no inversion) found



   Cartesian axes

     site n.     atom                  positions (alat units)
         1        C      tau(   1) = (   0.0000000   0.5773503   3.0439478  )
         2        C      tau(   2) = (   0.5000000   0.2886751   3.0439478  )
         3        C      tau(   3) = (   0.0000000   0.0000000   3.2468777  )
         4        C      tau(   4) = (   0.0000000   0.5773503   3.2468777  )
         5        C      tau(   5) = (   0.5000000   0.2886751   3.4498075  )
         6        C      tau(   6) = (   0.0000000   0.0000000   3.4498075  )

     number of k points=    19  Marzari-Vanderbilt smearing, width (Ry)=  0.0200
                       cart. coord. in units 2pi/alat
        k(    1) = (   0.0000000   0.0000000   0.0000000), wk =   0.0138889
        k(    2) = (   0.0000000   0.0962250   0.0000000), wk =   0.0833333
        k(    3) = (   0.0000000   0.1924501   0.0000000), wk =   0.0833333
        k(    4) = (   0.0000000   0.2886751   0.0000000), wk =   0.0833333
        k(    5) = (   0.0000000   0.3849002   0.0000000), wk =   0.0833333
        k(    6) = (   0.0000000   0.4811252   0.0000000), wk =   0.0833333
        k(    7) = (   0.0000000  -0.5773503   0.0000000), wk =   0.0416667
        k(    8) = (   0.0833333   0.1443376   0.0000000), wk =   0.0833333
        k(    9) = (   0.0833333   0.2405626   0.0000000), wk =   0.1666667
        k(   10) = (   0.0833333   0.3367877   0.0000000), wk =   0.1666667
        k(   11) = (   0.0833333   0.4330127   0.0000000), wk =   0.1666667
        k(   12) = (   0.0833333   0.5292377   0.0000000), wk =   0.1666667
        k(   13) = (   0.1666667   0.2886751   0.0000000), wk =   0.0833333
        k(   14) = (   0.1666667   0.3849002   0.0000000), wk =   0.1666667
        k(   15) = (   0.1666667   0.4811252   0.0000000), wk =   0.1666667
        k(   16) = (   0.1666667   0.5773503   0.0000000), wk =   0.0833333
        k(   17) = (   0.2500000   0.4330127   0.0000000), wk =   0.0833333
        k(   18) = (   0.2500000   0.5292377   0.0000000), wk =   0.1666667
        k(   19) = (   0.3333333   0.5773503   0.0000000), wk =   0.0277778

     Dense  grid:    21637 G-vectors     FFT dimensions: (  20,  20, 125)

     Estimated max dynamical RAM per process >       7.08 MB

     Estimated total dynamical RAM >      49.54 MB

     Check: negative core charge=   -0.000016

     Initial potential from superposition of free atoms

     starting charge      23.9998, renormalised to      24.0000

     negative rho (up, down):  3.318E-04 0.000E+00
     Starting wfcs are   24 randomized atomic wfcs

     total cpu time spent up to now is        0.5 secs

     per-process dynamical memory:    11.0 Mb

     Self-consistent Calculation

     iteration #  1     ecut=    45.00 Ry     beta= 0.70
     Davidson diagonalization with overlap
     ethr =  1.00E-02,  avg # of iterations =  8.8

     negative rho (up, down):  3.487E-03 0.000E+00

     total cpu time spent up to now is        1.1 secs

     total energy              =     -41.38623855 Ry
     estimated scf accuracy    <      12.27120441 Ry

     iteration #  2     ecut=    45.00 Ry     beta= 0.70
     Davidson diagonalization with overlap
     ethr =  1.00E-02,  avg # of iterations = 13.1

     total cpu time spent up to now is        1.9 secs

     total energy              =     -37.32179437 Ry
     estimated scf accuracy    <      33.11863875 Ry

     iteration #  3     ecut=    45.00 Ry     beta= 0.70
     Davidson diagonalization with overlap
     ethr =  1.00E-02,  avg # of iterations = 10.3

     total cpu time spent up to now is        2.5 secs

     total energy              =     -46.35686722 Ry
     estimated scf accuracy    <       1.64450584 Ry

     iteration #  4     ecut=    45.00 Ry     beta= 0.70
     Davidson diagonalization with overlap
     ethr =  6.85E-03,  avg # of iterations =  3.8

     total cpu time spent up to now is        2.8 secs

     total energy              =     -46.52262928 Ry
     estimated scf accuracy    <       0.62477813 Ry

     iteration #  5     ecut=    45.00 Ry     beta= 0.70
     Davidson diagonalization with overlap
     ethr =  2.60E-03,  avg # of iterations =  2.2

     total cpu time spent up to now is        3.1 secs

     total energy              =     -46.50783116 Ry
     estimated scf accuracy    <       0.42794273 Ry

     iteration #  6     ecut=    45.00 Ry     beta= 0.70
     Davidson diagonalization with overlap
     ethr =  1.78E-03,  avg # of iterations =  1.6

     total cpu time spent up to now is        3.3 secs

     total energy              =     -46.45081934 Ry
     estimated scf accuracy    <       0.26768807 Ry

     iteration #  7     ecut=    45.00 Ry     beta= 0.70
     Davidson diagonalization with overlap
     ethr =  1.12E-03,  avg # of iterations =  3.4

     total cpu time spent up to now is        3.6 secs

     total energy              =     -46.46407553 Ry
     estimated scf accuracy    <       0.09032498 Ry

     iteration #  8     ecut=    45.00 Ry     beta= 0.70
     Davidson diagonalization with overlap
     ethr =  3.76E-04,  avg # of iterations =  8.2

     total cpu time spent up to now is        4.1 secs

     total energy              =     -46.50588245 Ry
     estimated scf accuracy    <       0.04316607 Ry

     iteration #  9     ecut=    45.00 Ry     beta= 0.70
     Davidson diagonalization with overlap
     ethr =  1.80E-04,  avg # of iterations =  4.1

     negative rho (up, down):  1.354E-06 0.000E+00

     total cpu time spent up to now is        4.5 secs

     total energy              =     -46.49069926 Ry
     estimated scf accuracy    <       0.04996706 Ry

     iteration # 10     ecut=    45.00 Ry     beta= 0.70
     Davidson diagonalization with overlap
     ethr =  1.80E-04,  avg # of iterations =  6.8

     negative rho (up, down):  3.587E-04 0.000E+00

     total cpu time spent up to now is        4.8 secs

     total energy              =     -46.48664627 Ry
     estimated scf accuracy    <       0.01168423 Ry

     iteration # 11     ecut=    45.00 Ry     beta= 0.70
     Davidson diagonalization with overlap
     c_bands:  1 eigenvalues not converged
     ethr =  4.87E-05,  avg # of iterations = 12.2

     negative rho (up, down):  2.128E-03 0.000E+00

     total cpu time spent up to now is        5.4 secs

     total energy              =     -46.48959923 Ry
     estimated scf accuracy    <       0.00097761 Ry

     iteration # 12     ecut=    45.00 Ry     beta= 0.70
     Davidson diagonalization with overlap
     c_bands:  2 eigenvalues not converged
     ethr =  4.07E-06,  avg # of iterations = 15.5

     negative rho (up, down):  2.239E-03 0.000E+00

     total cpu time spent up to now is        6.2 secs

     total energy              =     -46.49047080 Ry
     estimated scf accuracy    <       0.00044681 Ry

     iteration # 13     ecut=    45.00 Ry     beta= 0.70
     Davidson diagonalization with overlap
     ethr =  1.86E-06,  avg # of iterations =  6.5

     negative rho (up, down):  2.324E-03 0.000E+00

     total cpu time spent up to now is        6.6 secs

     total energy              =     -46.49063324 Ry
     estimated scf accuracy    <       0.00041506 Ry

     iteration # 14     ecut=    45.00 Ry     beta= 0.70
     Davidson diagonalization with overlap
     ethr =  1.73E-06,  avg # of iterations =  2.3

     negative rho (up, down):  2.322E-03 0.000E+00

     total cpu time spent up to now is        6.9 secs

     total energy              =     -46.49073934 Ry
     estimated scf accuracy    <       0.00003772 Ry

     iteration # 15     ecut=    45.00 Ry     beta= 0.70
     Davidson diagonalization with overlap
     ethr =  1.57E-07,  avg # of iterations =  6.4

     negative rho (up, down):  2.351E-03 0.000E+00

     total cpu time spent up to now is        7.4 secs

     total energy              =     -46.49076647 Ry
     estimated scf accuracy    <       0.00002041 Ry

     iteration # 16     ecut=    45.00 Ry     beta= 0.70
     Davidson diagonalization with overlap
     ethr =  8.50E-08,  avg # of iterations =  4.4

     negative rho (up, down):  2.342E-03 0.000E+00

     total cpu time spent up to now is        7.8 secs

     total energy              =     -46.49077349 Ry
     estimated scf accuracy    <       0.00000398 Ry

     iteration # 17     ecut=    45.00 Ry     beta= 0.70
     Davidson diagonalization with overlap
     ethr =  1.66E-08,  avg # of iterations =  5.4

     negative rho (up, down):  2.326E-03 0.000E+00

     total cpu time spent up to now is        8.2 secs

     total energy              =     -46.49077539 Ry
     estimated scf accuracy    <       0.00000487 Ry

     iteration # 18     ecut=    45.00 Ry     beta= 0.70
     Davidson diagonalization with overlap
     ethr =  1.66E-08,  avg # of iterations =  1.4

     negative rho (up, down):  2.327E-03 0.000E+00

     total cpu time spent up to now is        8.4 secs

     total energy              =     -46.49077530 Ry
     estimated scf accuracy    <       0.00000145 Ry

     iteration # 19     ecut=    45.00 Ry     beta= 0.70
     Davidson diagonalization with overlap
     ethr =  6.04E-09,  avg # of iterations =  3.6

     negative rho (up, down):  2.326E-03 0.000E+00

     total cpu time spent up to now is        8.8 secs

     total energy              =     -46.49077555 Ry
     estimated scf accuracy    <       0.00000022 Ry

     iteration # 20     ecut=    45.00 Ry     beta= 0.70
     Davidson diagonalization with overlap
     ethr =  9.08E-10,  avg # of iterations =  6.7

     negative rho (up, down):  2.326E-03 0.000E+00

     total cpu time spent up to now is        9.3 secs

     total energy              =     -46.49077581 Ry
     estimated scf accuracy    <       0.00000003 Ry

     iteration # 21     ecut=    45.00 Ry     beta= 0.70
     Davidson diagonalization with overlap
     ethr =  1.09E-10,  avg # of iterations =  6.4

     negative rho (up, down):  2.326E-03 0.000E+00

     total cpu time spent up to now is        9.7 secs

     End of self-consistent calculation

          k = 0.0000 0.0000 0.0000 (  2629 PWs)   bands (ev):

   -33.6916 -24.3179 -24.3179 -20.3820 -20.1522 -20.1522 -11.1472  -2.8327
    -0.0721   2.3196   2.3196   2.6473   2.6473   3.4049   5.4120   5.8270

          k = 0.0000 0.0962 0.0000 (  2663 PWs)   bands (ev):

   -33.6826 -25.1062 -25.0950 -20.2001 -19.1308 -19.0774 -10.9716  -3.6760
    -0.2833   0.7861   1.0277   3.0011   4.4066   4.6175   5.6370   6.0363

          k = 0.0000 0.1925 0.0000 (  2691 PWs)   bands (ev):

   -33.6630 -26.4384 -26.4177 -19.6937 -17.1021 -16.9032 -10.4640  -5.6058
    -1.0315  -0.4690   0.7464   2.4668   5.6845   6.2013   6.3253   6.6203

          k = 0.0000 0.2887 0.0000 (  2687 PWs)   bands (ev):

   -33.6518 -27.6485 -27.5380 -18.8635 -14.9283 -14.5291  -9.8724  -7.4309
    -1.6539  -1.0962   0.5992   1.6769   5.0484   7.2041   7.4587   7.5229

          k = 0.0000 0.3849 0.0000 (  2706 PWs)   bands (ev):

   -33.6653 -28.5599 -28.3200 -17.7704 -13.0762 -12.6049 -10.5511  -7.1735
    -1.9622  -0.8546   0.2823   0.5834   3.7929   6.0896   6.7088   8.9756

          k = 0.0000 0.4811 0.0000 (  2702 PWs)   bands (ev):

   -33.6934 -29.1192 -28.7594 -16.4942 -12.8892 -11.9061 -10.5715  -5.3398
    -1.8832  -1.0167   0.2551   0.3863   2.8163   3.7803   4.9595  10.8219

          k = 0.0000-0.5774 0.0000 (  2716 PWs)   bands (ev):

   -33.7081 -29.3077 -28.8983 -15.5788 -13.8750 -11.5273 -10.2072  -3.6914
    -2.6867  -1.4323   0.9006   1.2629   1.9105   3.2137   3.2164  12.5068

          k = 0.0833 0.1443 0.0000 (  2687 PWs)   bands (ev):

   -33.6682 -26.0878 -26.0639 -19.8587 -17.6655 -17.5469 -10.6279  -4.9621
    -1.5111   0.5994   0.6093   3.2371   4.3041   6.0406   6.3052   6.4457

          k = 0.0833 0.2406 0.0000 (  2698 PWs)   bands (ev):

   -33.6541 -27.2405 -27.1914 -19.1800 -15.6524 -15.3984 -10.0225  -6.7052
    -2.7457  -0.0906   0.7488   2.8181   5.0675   6.1044   7.0416   7.2304

          k = 0.0833 0.3368 0.0000 (  2705 PWs)   bands (ev):

   -33.6596 -28.2269 -28.0820 -18.2033 -13.6988 -13.3083  -9.9562  -7.5386
    -3.0920  -0.8257   0.7762   1.9196   4.2307   6.5944   7.3952   8.3075

          k = 0.0833 0.4330 0.0000 (  2710 PWs)   bands (ev):

   -33.6874 -28.9216 -28.6520 -16.9891 -12.4734 -12.1295 -10.7726  -6.2264
    -2.5192  -1.3232   0.0704   1.4566   3.2237   4.6508   6.3661   9.8769

          k = 0.0833 0.5292 0.0000 (  2713 PWs)   bands (ev):

   -33.7148 -29.2772 -28.9197 -15.7091 -13.5066 -11.5286 -10.3716  -4.2690
    -2.2421  -1.6109  -0.2812   1.6067   1.9776   3.4287   4.9001  11.8394

          k = 0.1667 0.2887 0.0000 (  2703 PWs)   bands (ev):

   -33.6593 -28.0703 -28.0142 -18.3390 -13.8853 -13.6804  -9.7092  -7.4259
    -3.9770  -0.7058   0.9005   3.3691   4.5657   5.5502   7.6470   8.1510

          k = 0.1667 0.3849 0.0000 (  2709 PWs)   bands (ev):

   -33.6888 -28.7556 -28.6289 -17.2102 -12.5106 -12.2912 -10.4385  -6.6927
    -3.8321  -1.4921   0.7079   2.1139   4.0193   5.4796   6.8443   9.2018

          k = 0.1667 0.4811 0.0000 (  2736 PWs)   bands (ev):

   -33.7283 -29.2010 -28.9785 -15.8854 -12.7454 -11.5943 -10.7062  -4.9976
    -2.6541  -1.8800  -0.3971   1.4765   2.3129   4.5787   7.0810  10.5732

          k = 0.1667 0.5774 0.0000 (  2725 PWs)   bands (ev):

   -33.7465 -29.3539 -29.0893 -14.8259 -13.7388 -11.4662 -10.4643  -3.2762
    -3.1187  -1.5679  -0.0539   0.0790   1.5206   4.4682   6.7412  11.9302

          k = 0.2500 0.4330 0.0000 (  2739 PWs)   bands (ev):

   -33.7350 -29.1374 -29.0334 -15.9474 -12.2387 -11.7077 -10.9202  -5.2816
    -3.1506  -2.0256   0.4629   0.7533   2.5221   5.7050   7.7654  10.0377

          k = 0.2500 0.5292 0.0000 (  2751 PWs)   bands (ev):

   -33.7706 -29.3475 -29.2256 -14.5493 -13.0066 -11.9952 -10.6567  -3.5908
    -2.4355  -1.5726  -0.7493   0.2693   0.6085   5.9835   8.7236   9.8704

          k = 0.3333 0.5774 0.0000 (  2763 PWs)   bands (ev):

   -33.7893 -29.3538 -29.3537 -13.1966 -13.1966 -12.9961 -10.6492  -2.0911
    -2.0889  -2.0889  -0.6262  -0.6261  -0.3314   7.7876   7.7877  10.1897

     the Fermi energy is     2.2598 ev

!    total energy              =     -46.49077583 Ry
     estimated scf accuracy    <          2.4E-09 Ry
     smearing contrib. (-TS)   =       0.00035890 Ry
     internal energy E=F+TS    =     -46.49113473 Ry

     The total energy is F=E-TS. E is the sum of the following terms:
     one-electron contribution =   -1330.00641776 Ry
     hartree contribution      =     672.08496756 Ry
     xc contribution           =     -31.87357192 Ry
     ewald contribution        =     643.30388739 Ry

     convergence has been achieved in  21 iterations

     negative rho (up, down):  2.326E-03 0.000E+00

     Forces acting on atoms (cartesian axes, Ry/au):

     atom    1 type  1   force =     0.00000000   -0.00000000  -24.78015120
     atom    2 type  1   force =     0.00000000   -0.00000000   -2.86218444
     atom    3 type  1   force =     0.00000000    0.00000000  -23.87975683
     atom    4 type  1   force =     0.00000000   -0.00000000   23.87966023
     atom    5 type  1   force =     0.00000000    0.00000000    2.86220959
     atom    6 type  1   force =     0.00000000   -0.00000000   24.78022265

     Total force =    48.836263     Total SCF correction =     0.000140


     Computing stress (Cartesian axis) and pressure


     negative rho (up, down):  2.326E-03 0.000E+00
          total   stress  (Ry/bohr**3)                   (kbar)     P=     6423.12
   0.01707925   0.00000000   0.00000000         2512.44        0.00        0.00
   0.00000000   0.01707925   0.00000000            0.00     2512.44        0.00
   0.00000000   0.00000000   0.09683190            0.00        0.00    14244.46


     Writing all to output data dir /run/media/rfa/SATA/Skripsi/DFT/Graphene-copy/tmp/gr-abc-3L.save/ :
     XML data file, charge density, pseudopotentials, collected wavefunctions

     init_run     :      0.37s CPU      0.40s WALL (       1 calls)
     electrons    :     17.42s CPU      9.28s WALL (       1 calls)
     forces       :      0.08s CPU      0.04s WALL (       1 calls)
     stress       :      0.20s CPU      0.12s WALL (       1 calls)

     Called by init_run:
     wfcinit      :      0.20s CPU      0.11s WALL (       1 calls)
     potinit      :      0.01s CPU      0.01s WALL (       1 calls)
     hinit0       :      0.14s CPU      0.26s WALL (       1 calls)

     Called by electrons:
     c_bands      :     15.53s CPU      8.23s WALL (      21 calls)
     sum_band     :      1.53s CPU      0.81s WALL (      21 calls)
     v_of_rho     :      0.16s CPU      0.09s WALL (      22 calls)
     newd         :      0.11s CPU      0.10s WALL (      22 calls)
     mix_rho      :      0.07s CPU      0.04s WALL (      21 calls)

     Called by c_bands:
     init_us_2    :      0.35s CPU      0.17s WALL (     855 calls)
     cegterg      :     14.89s CPU      7.86s WALL (     399 calls)

     Called by *egterg:
     cdiaghg      :      2.16s CPU      1.12s WALL (    2926 calls)
     h_psi        :      9.67s CPU      5.14s WALL (    2945 calls)
     s_psi        :      0.34s CPU      0.18s WALL (    2945 calls)
     g_psi        :      0.13s CPU      0.06s WALL (    2527 calls)

     Called by h_psi:
     h_psi:calbec :      1.65s CPU      0.86s WALL (    2945 calls)
     vloc_psi     :      7.24s CPU      3.86s WALL (    2945 calls)
     add_vuspsi   :      0.61s CPU      0.32s WALL (    2945 calls)

     General routines
     calbec       :      1.89s CPU      0.98s WALL (    3667 calls)
     fft          :      0.18s CPU      0.29s WALL (     267 calls)
     ffts         :      0.01s CPU      0.00s WALL (      21 calls)
     fftw         :      6.53s CPU      3.46s WALL (   54134 calls)

     Parallel routines

     PWSCF        :     18.15s CPU     10.13s WALL


   This run was terminated on:  16: 6:36  16Apr2025            

=------------------------------------------------------------------------------=
   JOB DONE.
=------------------------------------------------------------------------------=
