
     Program PWSCF v.7.4.1 starts on 16Apr2025 at 15:22:30 

     This program is part of the open-source Quantum ESPRESSO suite
     for quantum simulation of materials; please cite
         "P. Giannozzi et al., J. Phys.:Condens. Matter 21 395502 (2009);
         "P. Giannozzi et al., J. Phys.:Condens. Matter 29 465901 (2017);
         "P. Giannozzi et al., J. Chem. Phys. 152 154105 (2020);
          URL http://www.quantum-espresso.org", 
     in publications or presentations arising from this work. More details at
     http://www.quantum-espresso.org/quote

     Parallel version (MPI), running on     7 processors

     MPI processes distributed on     1 nodes
     14631 MiB available memory on the printing compute node when the environment starts

     Waiting for input...
     Reading input from standard input

     Current dimensions of program PWSCF are:
     Max number of different atomic species (ntypx) = 10
     Max number of k-points (npk) =  40000
     Max angular momentum in pseudopotentials (lmaxx) =  4

     R & G space division:  proc/nbgrp/npool/nimage =       7
     Subspace diagonalization in iterative solution of the eigenvalue problem:
     a serial algorithm will be used


     Parallelization info
     --------------------
     sticks:   dense  smooth     PW     G-vecs:    dense   smooth      PW
     Min          17      17      5                  919      919     181
     Max          18      18      6                  934      934     204
     Sum         121     121     37                 6489     6489    1321

     Using Slab Decomposition



     bravais-lattice index     =            4
     lattice parameter (alat)  =       4.6561  a.u.
     unit-cell volume          =     532.1899 (a.u.)^3
     number of atoms/cell      =            6
     number of atomic types    =            1
     number of electrons       =        24.00
     number of Kohn-Sham states=           16
     kinetic-energy cutoff     =      20.0000  Ry
     charge density cutoff     =      80.0000  Ry
     scf convergence threshold =      1.0E-08
     mixing beta               =       0.7000
     number of iterations used =            8  plain     mixing
     Exchange-correlation= PBE
                           (   1   4   3   4   0   0   0)

     celldm(1)=   4.656107  celldm(2)=   0.000000  celldm(3)=   6.087896
     celldm(4)=   0.000000  celldm(5)=   0.000000  celldm(6)=   0.000000

     crystal axes: (cart. coord. in units of alat)
               a(1) = (   1.000000   0.000000   0.000000 )  
               a(2) = (  -0.500000   0.866025   0.000000 )  
               a(3) = (   0.000000   0.000000   6.087896 )  

     reciprocal axes: (cart. coord. in units 2 pi/alat)
               b(1) = (  1.000000  0.577350 -0.000000 )  
               b(2) = (  0.000000  1.154701  0.000000 )  
               b(3) = (  0.000000 -0.000000  0.164260 )  


     PseudoPot. # 1 for C  read from file:
     /run/media/rfa/SATA/Skripsi/DFT/Graphene-copy/pseudo/C.pbe-n-rrkjus_psl.0.1.UPF
     MD5 check sum: 96a6a315177d77e6c95bf6fd3870f9e3
     Pseudo is Ultrasoft + core correction, Zval =  4.0
     Generated using &quot;atomic&quot; code by A. Dal Corso  v.6.3MaX
     Using radial grid of 1073 points,  4 beta functions with: 
                l(1) =   0
                l(2) =   0
                l(3) =   1
                l(4) =   1
     Q(r) pseudized with 0 coefficients 


     atomic species   valence    mass     pseudopotential
     C                 4.00    12.01070     C ( 1.00)

      6 Sym. Ops. (no inversion) found



   Cartesian axes

     site n.     atom                  positions (alat units)
         1        C      tau(   1) = (   0.0000000   0.5773503   3.0439478  )
         2        C      tau(   2) = (   0.5000000   0.2886751   3.0439478  )
         3        C      tau(   3) = (   0.0000000   0.0000000   3.2468777  )
         4        C      tau(   4) = (   0.0000000   0.5773503   3.2468777  )
         5        C      tau(   5) = (   0.5000000   0.2886751   3.4498075  )
         6        C      tau(   6) = (   0.0000000   0.0000000   3.4498075  )

     number of k points=    19  Marzari-Vanderbilt smearing, width (Ry)=  0.0200
                       cart. coord. in units 2pi/alat
        k(    1) = (   0.0000000   0.0000000   0.0000000), wk =   0.0138889
        k(    2) = (   0.0000000   0.0962250   0.0000000), wk =   0.0833333
        k(    3) = (   0.0000000   0.1924501   0.0000000), wk =   0.0833333
        k(    4) = (   0.0000000   0.2886751   0.0000000), wk =   0.0833333
        k(    5) = (   0.0000000   0.3849002   0.0000000), wk =   0.0833333
        k(    6) = (   0.0000000   0.4811252   0.0000000), wk =   0.0833333
        k(    7) = (   0.0000000  -0.5773503   0.0000000), wk =   0.0416667
        k(    8) = (   0.0833333   0.1443376   0.0000000), wk =   0.0833333
        k(    9) = (   0.0833333   0.2405626   0.0000000), wk =   0.1666667
        k(   10) = (   0.0833333   0.3367877   0.0000000), wk =   0.1666667
        k(   11) = (   0.0833333   0.4330127   0.0000000), wk =   0.1666667
        k(   12) = (   0.0833333   0.5292377   0.0000000), wk =   0.1666667
        k(   13) = (   0.1666667   0.2886751   0.0000000), wk =   0.0833333
        k(   14) = (   0.1666667   0.3849002   0.0000000), wk =   0.1666667
        k(   15) = (   0.1666667   0.4811252   0.0000000), wk =   0.1666667
        k(   16) = (   0.1666667   0.5773503   0.0000000), wk =   0.0833333
        k(   17) = (   0.2500000   0.4330127   0.0000000), wk =   0.0833333
        k(   18) = (   0.2500000   0.5292377   0.0000000), wk =   0.1666667
        k(   19) = (   0.3333333   0.5773503   0.0000000), wk =   0.0277778

     Dense  grid:     6489 G-vectors     FFT dimensions: (  15,  15,  81)

     Estimated max dynamical RAM per process >       2.26 MB

     Estimated total dynamical RAM >      15.84 MB

     Check: negative core charge=   -0.000369

     Initial potential from superposition of free atoms

     starting charge      23.9998, renormalised to      24.0000

     negative rho (up, down):  1.367E-02 0.000E+00
     Starting wfcs are   24 randomized atomic wfcs

     total cpu time spent up to now is        0.2 secs

     per-process dynamical memory:     8.5 Mb

     Self-consistent Calculation

     iteration #  1     ecut=    20.00 Ry     beta= 0.70
     Davidson diagonalization with overlap
     ethr =  1.00E-02,  avg # of iterations =  4.6

     negative rho (up, down):  1.285E-01 0.000E+00

     total cpu time spent up to now is        0.4 secs

     total energy              =     -39.63205499 Ry
     estimated scf accuracy    <       7.23008662 Ry

     iteration #  2     ecut=    20.00 Ry     beta= 0.70
     Davidson diagonalization with overlap
     ethr =  1.00E-02,  avg # of iterations =  8.1

     negative rho (up, down):  2.497E-03 0.000E+00

     total cpu time spent up to now is        0.6 secs

     total energy              =     -32.03351389 Ry
     estimated scf accuracy    <      44.51686186 Ry

     iteration #  3     ecut=    20.00 Ry     beta= 0.70
     Davidson diagonalization with overlap
     ethr =  1.00E-02,  avg # of iterations =  8.9

     negative rho (up, down):  6.856E-03 0.000E+00

     total cpu time spent up to now is        0.8 secs

     total energy              =     -42.77150964 Ry
     estimated scf accuracy    <       1.26898842 Ry

     iteration #  4     ecut=    20.00 Ry     beta= 0.70
     Davidson diagonalization with overlap
     ethr =  5.29E-03,  avg # of iterations =  2.3

     negative rho (up, down):  1.519E-02 0.000E+00

     total cpu time spent up to now is        0.9 secs

     total energy              =     -42.78241665 Ry
     estimated scf accuracy    <       0.56329250 Ry

     iteration #  5     ecut=    20.00 Ry     beta= 0.70
     Davidson diagonalization with overlap
     ethr =  2.35E-03,  avg # of iterations =  1.2

     negative rho (up, down):  2.741E-02 0.000E+00

     total cpu time spent up to now is        1.0 secs

     total energy              =     -42.67228667 Ry
     estimated scf accuracy    <       0.36740827 Ry

     iteration #  6     ecut=    20.00 Ry     beta= 0.70
     Davidson diagonalization with overlap
     ethr =  1.53E-03,  avg # of iterations =  2.1

     negative rho (up, down):  3.364E-02 0.000E+00

     total cpu time spent up to now is        1.1 secs

     total energy              =     -42.64390437 Ry
     estimated scf accuracy    <       0.20128771 Ry

     iteration #  7     ecut=    20.00 Ry     beta= 0.70
     Davidson diagonalization with overlap
     ethr =  8.39E-04,  avg # of iterations =  1.8

     negative rho (up, down):  3.872E-02 0.000E+00

     total cpu time spent up to now is        5.2 secs

     total energy              =     -42.62587858 Ry
     estimated scf accuracy    <       0.13807830 Ry

     iteration #  8     ecut=    20.00 Ry     beta= 0.70
     Davidson diagonalization with overlap
     ethr =  5.75E-04,  avg # of iterations =  1.3

     negative rho (up, down):  5.820E-02 0.000E+00

     total cpu time spent up to now is       14.3 secs

     total energy              =     -42.57575056 Ry
     estimated scf accuracy    <       0.10910942 Ry

     iteration #  9     ecut=    20.00 Ry     beta= 0.70
     Davidson diagonalization with overlap
     ethr =  4.55E-04,  avg # of iterations =  4.7

     negative rho (up, down):  9.772E-02 0.000E+00

     total cpu time spent up to now is       28.2 secs

     total energy              =     -42.54368699 Ry
     estimated scf accuracy    <       0.04322709 Ry

     iteration # 10     ecut=    20.00 Ry     beta= 0.70
     Davidson diagonalization with overlap
     ethr =  1.80E-04,  avg # of iterations =  7.3

     negative rho (up, down):  1.082E-01 0.000E+00

     total cpu time spent up to now is       36.7 secs

     total energy              =     -42.54655307 Ry
     estimated scf accuracy    <       0.00107791 Ry

     iteration # 11     ecut=    20.00 Ry     beta= 0.70
     Davidson diagonalization with overlap
     c_bands:  1 eigenvalues not converged
     ethr =  4.49E-06,  avg # of iterations = 13.4

     negative rho (up, down):  1.046E-01 0.000E+00

     total cpu time spent up to now is       37.0 secs

     total energy              =     -42.54675227 Ry
     estimated scf accuracy    <       0.00012771 Ry

     iteration # 12     ecut=    20.00 Ry     beta= 0.70
     Davidson diagonalization with overlap
     c_bands:  1 eigenvalues not converged
     c_bands:  1 eigenvalues not converged
     ethr =  5.32E-07,  avg # of iterations =  8.5

     negative rho (up, down):  1.054E-01 0.000E+00

     total cpu time spent up to now is       37.2 secs

     total energy              =     -42.54678307 Ry
     estimated scf accuracy    <       0.00002571 Ry

     iteration # 13     ecut=    20.00 Ry     beta= 0.70
     Davidson diagonalization with overlap
     ethr =  1.07E-07,  avg # of iterations =  3.5

     negative rho (up, down):  1.051E-01 0.000E+00

     total cpu time spent up to now is       37.3 secs

     total energy              =     -42.54679106 Ry
     estimated scf accuracy    <       0.00000133 Ry

     iteration # 14     ecut=    20.00 Ry     beta= 0.70
     Davidson diagonalization with overlap
     ethr =  5.55E-09,  avg # of iterations =  2.9

     negative rho (up, down):  1.052E-01 0.000E+00

     total cpu time spent up to now is       37.5 secs

     total energy              =     -42.54679123 Ry
     estimated scf accuracy    <       0.00000034 Ry

     iteration # 15     ecut=    20.00 Ry     beta= 0.70
     Davidson diagonalization with overlap
     ethr =  1.40E-09,  avg # of iterations =  2.0

     negative rho (up, down):  1.052E-01 0.000E+00

     total cpu time spent up to now is       37.6 secs

     End of self-consistent calculation

          k = 0.0000 0.0000 0.0000 (   815 PWs)   bands (ev):

   -36.0888 -27.4470 -27.4470 -22.2046 -22.2046 -20.4875 -10.6691  -1.8494
    -1.6347   1.9848   1.9848   3.2121   3.2121   4.2004   4.6751   5.4360

          k = 0.0000 0.0962 0.0000 (   825 PWs)   bands (ev):

   -36.0636 -28.1766 -28.1343 -21.3609 -21.3154 -20.3320 -10.5864  -2.7835
    -1.6577   0.0717   0.1875   3.7534   4.4654   4.9017   5.0962   5.7608

          k = 0.0000 0.1925 0.0000 (   824 PWs)   bands (ev):

   -36.0309 -29.4124 -29.2707 -20.1523 -19.2487 -18.8763 -10.0491  -5.2312
    -1.8877  -1.2143  -0.4399   3.4923   5.1436   5.5364   6.5141   7.6904

          k = 0.0000 0.2887 0.0000 (   796 PWs)   bands (ev):

   -35.9896 -30.4551 -29.9028 -19.1232 -16.4275 -14.8455  -9.6159  -6.9065
    -1.8579  -1.7380  -0.2138   2.9903   6.1583   6.2891   6.7392   6.9991

          k = 0.0000 0.3849 0.0000 (   806 PWs)   bands (ev):

   -35.9946 -31.4000 -30.3779 -18.0521 -14.4790 -13.2485 -10.9985  -6.4413
    -1.7619  -1.6915  -0.9226   2.5719   3.9998   4.8175   7.8660   8.1299

          k = 0.0000 0.4811 0.0000 (   800 PWs)   bands (ev):

   -35.9750 -31.9530 -30.8903 -16.6781 -13.5116 -13.3252 -11.1530  -5.0174
    -1.9257  -0.8263  -0.2173   2.2237   2.5020   3.1179   5.4822   9.8899

          k = 0.0000-0.5774 0.0000 (   806 PWs)   bands (ev):

   -35.9876 -32.1409 -31.0809 -15.4615 -14.8459 -13.0140 -10.7587  -3.9604
    -3.0046   0.3218   0.5132   1.7489   2.4083   2.6184   2.9595  11.9280

          k = 0.0833 0.1443 0.0000 (   809 PWs)   bands (ev):

   -35.9653 -29.0107 -28.8830 -20.2725 -19.7466 -19.2782 -10.0915  -3.8076
    -2.4068  -0.4592  -0.1299   4.4251   4.9967   5.3183   6.0394   6.3718

          k = 0.0833 0.2406 0.0000 (   817 PWs)   bands (ev):

   -36.0441 -30.1337 -29.8247 -19.5170 -17.6621 -16.8519  -9.6541  -6.3124
    -3.6922  -0.6894  -0.3245   4.1507   5.8268   6.1536   6.6920   7.2076

          k = 0.0833 0.3368 0.0000 (   808 PWs)   bands (ev):

   -36.0540 -31.0238 -30.4346 -18.4941 -15.1357 -13.8251 -10.2667  -6.7455
    -3.8443  -0.7065  -0.6694   3.5577   4.8221   5.4461   7.1864   7.4626

          k = 0.0833 0.4330 0.0000 (   803 PWs)   bands (ev):

   -36.0012 -31.7172 -30.7612 -17.2439 -13.4896 -12.9573 -11.3076  -5.5736
    -2.8111  -1.4608  -0.3458   2.6043   3.4072   3.6002   8.0419   9.0107

          k = 0.0833 0.5292 0.0000 (   808 PWs)   bands (ev):

   -36.0144 -32.0774 -31.1077 -15.8486 -14.2311 -12.7850 -10.9937  -4.3235
    -2.6264  -1.0820   0.3018   0.9867   1.9017   3.4289   5.7178  11.2007

          k = 0.1667 0.2887 0.0000 (   809 PWs)   bands (ev):

   -36.0754 -30.8103 -30.4992 -18.6366 -15.3104 -14.4782  -9.7635  -6.6419
    -4.9940  -0.4507  -0.4455   4.6417   5.3443   6.5409   6.7038   7.0666

          k = 0.1667 0.3849 0.0000 (   802 PWs)   bands (ev):

   -36.1161 -31.3921 -31.0632 -17.4499 -13.4640 -12.8901 -10.7410  -5.8708
    -4.5693  -0.9907  -0.3269   2.8337   3.6009   6.1742   8.3785   8.6507

          k = 0.1667 0.4811 0.0000 (   790 PWs)   bands (ev):

   -36.0701 -31.8151 -31.1160 -16.1039 -13.1810 -12.1801 -11.0811  -4.5069
    -2.7076  -1.7499  -0.2164   1.4238   1.9232   6.1684   8.5891  10.5814

          k = 0.1667 0.5774 0.0000 (   796 PWs)   bands (ev):

   -36.0941 -31.9528 -31.2855 -14.7796 -14.5586 -12.0626 -10.9041  -3.5601
    -2.9054  -1.1620  -0.5692   0.6031   1.0064   6.2207   8.0081  12.6039

          k = 0.2500 0.4330 0.0000 (   799 PWs)   bands (ev):

   -36.1776 -31.5572 -31.5417 -16.1996 -12.7249 -12.5039 -11.2534  -4.6283
    -3.7322  -1.7024  -0.2522   1.1844   1.8769   7.4713   9.3631  10.2834

          k = 0.2500 0.5292 0.0000 (   796 PWs)   bands (ev):

   -36.1520 -31.7790 -31.3920 -14.8648 -13.5103 -12.5382 -10.9205  -3.4494
    -2.4362  -2.1209  -0.8664  -0.0032   0.5786   7.7273  10.2499  10.9850

          k = 0.3333 0.5774 0.0000 (   783 PWs)   bands (ev):

   -36.0763 -31.4524 -31.4523 -13.8154 -13.4089 -13.4066 -10.4355  -2.4107
    -2.2940  -2.2915  -0.8260  -0.8227   0.2734   9.4945   9.4953  11.7925

     the Fermi energy is     2.8151 ev

!    total energy              =     -42.54679125 Ry
     estimated scf accuracy    <          8.4E-09 Ry
     smearing contrib. (-TS)   =      -0.00012692 Ry
     internal energy E=F+TS    =     -42.54666433 Ry

     The total energy is F=E-TS. E is the sum of the following terms:
     one-electron contribution =   -1321.11529593 Ry
     hartree contribution      =     666.62412867 Ry
     xc contribution           =     -31.35938546 Ry
     ewald contribution        =     643.30388839 Ry

     convergence has been achieved in  15 iterations

     negative rho (up, down):  1.052E-01 0.000E+00

     Forces acting on atoms (cartesian axes, Ry/au):

     atom    1 type  1   force =     0.00000000    0.00000000  -28.65400581
     atom    2 type  1   force =     0.00000000    0.00000000   -3.31479245
     atom    3 type  1   force =     0.00000000   -0.00000000  -27.69374206
     atom    4 type  1   force =     0.00000000   -0.00000000   27.69486712
     atom    5 type  1   force =     0.00000000    0.00000000    3.31062292
     atom    6 type  1   force =    -0.00000000   -0.00000000   28.65705029

     Total force =    56.552415     Total SCF correction =     0.000380


     Computing stress (Cartesian axis) and pressure


     negative rho (up, down):  1.052E-01 0.000E+00
          total   stress  (Ry/bohr**3)                   (kbar)     P=     4117.65
  -0.00300270  -0.00000000   0.00000000         -441.71       -0.00        0.00
  -0.00000000  -0.00300270  -0.00000000           -0.00     -441.71       -0.00
   0.00000000  -0.00000000   0.08997901            0.00       -0.00    13236.37


     Writing all to output data dir /run/media/rfa/SATA/Skripsi/DFT/Graphene-copy/tmp/gr-abc-3L.save/ :
     XML data file, charge density, pseudopotentials, collected wavefunctions

     init_run     :      0.15s CPU      0.15s WALL (       1 calls)
     electrons    :     24.99s CPU     37.38s WALL (       1 calls)
     forces       :      0.02s CPU      0.01s WALL (       1 calls)
     stress       :      0.08s CPU      0.04s WALL (       1 calls)

     Called by init_run:
     wfcinit      :      0.08s CPU      0.05s WALL (       1 calls)
     potinit      :      0.00s CPU      0.01s WALL (       1 calls)
     hinit0       :      0.06s CPU      0.08s WALL (       1 calls)

     Called by electrons:
     c_bands      :     22.88s CPU     34.14s WALL (      15 calls)
     sum_band     :      2.02s CPU      3.17s WALL (      15 calls)
     v_of_rho     :      0.04s CPU      0.02s WALL (      16 calls)
     newd         :      0.02s CPU      0.02s WALL (      16 calls)
     mix_rho      :      0.01s CPU      0.01s WALL (      15 calls)

     Called by c_bands:
     init_us_2    :      0.07s CPU      0.04s WALL (     627 calls)
     cegterg      :     22.18s CPU     32.97s WALL (     285 calls)

     Called by *egterg:
     cdiaghg      :      7.46s CPU     10.55s WALL (    1665 calls)
     h_psi        :      7.39s CPU      9.75s WALL (    1684 calls)
     s_psi        :      1.03s CPU      1.36s WALL (    1684 calls)
     g_psi        :      0.02s CPU      0.01s WALL (    1380 calls)

     Called by h_psi:
     h_psi:calbec :      3.88s CPU      5.04s WALL (    1684 calls)
     vloc_psi     :      2.60s CPU      3.53s WALL (    1684 calls)
     add_vuspsi   :      0.87s CPU      1.14s WALL (    1684 calls)

     General routines
     calbec       :      5.16s CPU      6.93s WALL (    2292 calls)
     fft          :      0.06s CPU      0.07s WALL (     201 calls)
     ffts         :      0.01s CPU      0.01s WALL (      15 calls)
     fftw         :      2.96s CPU      4.53s WALL (   31510 calls)

     Parallel routines

     PWSCF        :     25.33s CPU     37.75s WALL


   This run was terminated on:  15:23: 8  16Apr2025            

=------------------------------------------------------------------------------=
   JOB DONE.
=------------------------------------------------------------------------------=
