
     Program PWSCF v.7.4.1 starts on 16Apr2025 at 16: 8:34 

     This program is part of the open-source Quantum ESPRESSO suite
     for quantum simulation of materials; please cite
         "P. Giannozzi et al., J. Phys.:Condens. Matter 21 395502 (2009);
         "P. Giannozzi et al., J. Phys.:Condens. Matter 29 465901 (2017);
         "P. Giannozzi et al., J. Chem. Phys. 152 154105 (2020);
          URL http://www.quantum-espresso.org", 
     in publications or presentations arising from this work. More details at
     http://www.quantum-espresso.org/quote

     Parallel version (MPI), running on     7 processors

     MPI processes distributed on     1 nodes
     13233 MiB available memory on the printing compute node when the environment starts

     Waiting for input...
     Reading input from standard input

     Current dimensions of program PWSCF are:
     Max number of different atomic species (ntypx) = 10
     Max number of k-points (npk) =  40000
     Max angular momentum in pseudopotentials (lmaxx) =  4

     R & G space division:  proc/nbgrp/npool/nimage =       7
     Subspace diagonalization in iterative solution of the eigenvalue problem:
     a serial algorithm will be used


     Parallelization info
     --------------------
     sticks:   dense  smooth     PW     G-vecs:    dense   smooth      PW
     Min          62      62     19                 6632     6632    1108
     Max          63      63     21                 6655     6655    1119
     Sum         439     439    139                46531    46531    7785

     Using Slab Decomposition



     bravais-lattice index     =            4
     lattice parameter (alat)  =       4.6561  a.u.
     unit-cell volume          =     532.1899 (a.u.)^3
     number of atoms/cell      =            6
     number of atomic types    =            1
     number of electrons       =        24.00
     number of Kohn-Sham states=           16
     kinetic-energy cutoff     =      75.0000  Ry
     charge density cutoff     =     300.0000  Ry
     scf convergence threshold =      1.0E-08
     mixing beta               =       0.7000
     number of iterations used =            8  plain     mixing
     Exchange-correlation= PBE
                           (   1   4   3   4   0   0   0)

     celldm(1)=   4.656107  celldm(2)=   0.000000  celldm(3)=   6.087896
     celldm(4)=   0.000000  celldm(5)=   0.000000  celldm(6)=   0.000000

     crystal axes: (cart. coord. in units of alat)
               a(1) = (   1.000000   0.000000   0.000000 )  
               a(2) = (  -0.500000   0.866025   0.000000 )  
               a(3) = (   0.000000   0.000000   6.087896 )  

     reciprocal axes: (cart. coord. in units 2 pi/alat)
               b(1) = (  1.000000  0.577350 -0.000000 )  
               b(2) = (  0.000000  1.154701  0.000000 )  
               b(3) = (  0.000000 -0.000000  0.164260 )  


     PseudoPot. # 1 for C  read from file:
     /run/media/rfa/SATA/Skripsi/DFT/Graphene-copy/pseudo/C.pbe-n-rrkjus_psl.0.1.UPF
     MD5 check sum: 96a6a315177d77e6c95bf6fd3870f9e3
     Pseudo is Ultrasoft + core correction, Zval =  4.0
     Generated using &quot;atomic&quot; code by A. Dal Corso  v.6.3MaX
     Using radial grid of 1073 points,  4 beta functions with: 
                l(1) =   0
                l(2) =   0
                l(3) =   1
                l(4) =   1
     Q(r) pseudized with 0 coefficients 


     atomic species   valence    mass     pseudopotential
     C                 4.00    12.01070     C ( 1.00)

      6 Sym. Ops. (no inversion) found



   Cartesian axes

     site n.     atom                  positions (alat units)
         1        C      tau(   1) = (   0.0000000   0.5773503   3.0439478  )
         2        C      tau(   2) = (   0.5000000   0.2886751   3.0439478  )
         3        C      tau(   3) = (   0.0000000   0.0000000   3.2468777  )
         4        C      tau(   4) = (   0.0000000   0.5773503   3.2468777  )
         5        C      tau(   5) = (   0.5000000   0.2886751   3.4498075  )
         6        C      tau(   6) = (   0.0000000   0.0000000   3.4498075  )

     number of k points=    19  Marzari-Vanderbilt smearing, width (Ry)=  0.0200
                       cart. coord. in units 2pi/alat
        k(    1) = (   0.0000000   0.0000000   0.0000000), wk =   0.0138889
        k(    2) = (   0.0000000   0.0962250   0.0000000), wk =   0.0833333
        k(    3) = (   0.0000000   0.1924501   0.0000000), wk =   0.0833333
        k(    4) = (   0.0000000   0.2886751   0.0000000), wk =   0.0833333
        k(    5) = (   0.0000000   0.3849002   0.0000000), wk =   0.0833333
        k(    6) = (   0.0000000   0.4811252   0.0000000), wk =   0.0833333
        k(    7) = (   0.0000000  -0.5773503   0.0000000), wk =   0.0416667
        k(    8) = (   0.0833333   0.1443376   0.0000000), wk =   0.0833333
        k(    9) = (   0.0833333   0.2405626   0.0000000), wk =   0.1666667
        k(   10) = (   0.0833333   0.3367877   0.0000000), wk =   0.1666667
        k(   11) = (   0.0833333   0.4330127   0.0000000), wk =   0.1666667
        k(   12) = (   0.0833333   0.5292377   0.0000000), wk =   0.1666667
        k(   13) = (   0.1666667   0.2886751   0.0000000), wk =   0.0833333
        k(   14) = (   0.1666667   0.3849002   0.0000000), wk =   0.1666667
        k(   15) = (   0.1666667   0.4811252   0.0000000), wk =   0.1666667
        k(   16) = (   0.1666667   0.5773503   0.0000000), wk =   0.0833333
        k(   17) = (   0.2500000   0.4330127   0.0000000), wk =   0.0833333
        k(   18) = (   0.2500000   0.5292377   0.0000000), wk =   0.1666667
        k(   19) = (   0.3333333   0.5773503   0.0000000), wk =   0.0277778

     Dense  grid:    46531 G-vectors     FFT dimensions: (  25,  25, 160)

     Estimated max dynamical RAM per process >      14.88 MB

     Estimated total dynamical RAM >     104.13 MB

     Check: negative core charge=   -0.000003

     Initial potential from superposition of free atoms

     starting charge      23.9998, renormalised to      24.0000

     negative rho (up, down):  7.787E-05 0.000E+00
     Starting wfcs are   24 randomized atomic wfcs

     total cpu time spent up to now is        0.8 secs

     per-process dynamical memory:    15.3 Mb

     Self-consistent Calculation

     iteration #  1     ecut=    75.00 Ry     beta= 0.70
     Davidson diagonalization with overlap
     ethr =  1.00E-02,  avg # of iterations =  8.7

     negative rho (up, down):  7.026E-05 0.000E+00

     total cpu time spent up to now is        2.5 secs

     total energy              =     -41.35538422 Ry
     estimated scf accuracy    <      12.48435334 Ry

     iteration #  2     ecut=    75.00 Ry     beta= 0.70
     Davidson diagonalization with overlap
     ethr =  1.00E-02,  avg # of iterations = 11.7

     total cpu time spent up to now is        4.1 secs

     total energy              =     -40.01683366 Ry
     estimated scf accuracy    <      23.68648371 Ry

     iteration #  3     ecut=    75.00 Ry     beta= 0.70
     Davidson diagonalization with overlap
     ethr =  1.00E-02,  avg # of iterations =  8.5

     total cpu time spent up to now is        5.4 secs

     total energy              =     -46.26892148 Ry
     estimated scf accuracy    <       1.18689238 Ry

     iteration #  4     ecut=    75.00 Ry     beta= 0.70
     Davidson diagonalization with overlap
     ethr =  4.95E-03,  avg # of iterations =  5.8

     total cpu time spent up to now is        6.2 secs

     total energy              =     -46.47520720 Ry
     estimated scf accuracy    <       0.45548855 Ry

     iteration #  5     ecut=    75.00 Ry     beta= 0.70
     Davidson diagonalization with overlap
     ethr =  1.90E-03,  avg # of iterations =  4.9

     total cpu time spent up to now is        7.1 secs

     total energy              =     -46.54695590 Ry
     estimated scf accuracy    <       0.19378526 Ry

     iteration #  6     ecut=    75.00 Ry     beta= 0.70
     Davidson diagonalization with overlap
     ethr =  8.07E-04,  avg # of iterations =  4.8

     total cpu time spent up to now is        8.1 secs

     total energy              =     -46.55534766 Ry
     estimated scf accuracy    <       0.12305992 Ry

     iteration #  7     ecut=    75.00 Ry     beta= 0.70
     Davidson diagonalization with overlap
     ethr =  5.13E-04,  avg # of iterations =  5.1

     negative rho (up, down):  7.389E-07 0.000E+00

     total cpu time spent up to now is        8.9 secs

     total energy              =     -46.55783920 Ry
     estimated scf accuracy    <       0.03272623 Ry

     iteration #  8     ecut=    75.00 Ry     beta= 0.70
     Davidson diagonalization with overlap
     ethr =  1.36E-04,  avg # of iterations = 12.9

     negative rho (up, down):  1.806E-05 0.000E+00

     total cpu time spent up to now is       10.5 secs

     total energy              =     -46.58321373 Ry
     estimated scf accuracy    <       0.00334322 Ry

     iteration #  9     ecut=    75.00 Ry     beta= 0.70
     Davidson diagonalization with overlap
     c_bands:  1 eigenvalues not converged
     c_bands:  1 eigenvalues not converged
     c_bands:  1 eigenvalues not converged
     c_bands:  1 eigenvalues not converged
     ethr =  1.39E-05,  avg # of iterations = 12.3

     negative rho (up, down):  4.363E-05 0.000E+00

     total cpu time spent up to now is       12.3 secs

     total energy              =     -46.58892871 Ry
     estimated scf accuracy    <       0.00064518 Ry

     iteration # 10     ecut=    75.00 Ry     beta= 0.70
     Davidson diagonalization with overlap
     c_bands:  1 eigenvalues not converged
     c_bands:  1 eigenvalues not converged
     c_bands:  2 eigenvalues not converged
     ethr =  2.69E-06,  avg # of iterations = 14.9

     negative rho (up, down):  1.361E-04 0.000E+00

     total cpu time spent up to now is       14.2 secs

     total energy              =     -46.58884851 Ry
     estimated scf accuracy    <       0.00157562 Ry

     iteration # 11     ecut=    75.00 Ry     beta= 0.70
     Davidson diagonalization with overlap
     ethr =  2.69E-06,  avg # of iterations =  8.3

     negative rho (up, down):  1.369E-04 0.000E+00

     total cpu time spent up to now is       15.2 secs

     total energy              =     -46.58926843 Ry
     estimated scf accuracy    <       0.00003080 Ry

     iteration # 12     ecut=    75.00 Ry     beta= 0.70
     Davidson diagonalization with overlap
     ethr =  1.28E-07,  avg # of iterations =  9.7

     negative rho (up, down):  1.436E-04 0.000E+00

     total cpu time spent up to now is       17.0 secs

     total energy              =     -46.58933898 Ry
     estimated scf accuracy    <       0.00007057 Ry

     iteration # 13     ecut=    75.00 Ry     beta= 0.70
     Davidson diagonalization with overlap
     ethr =  1.28E-07,  avg # of iterations =  1.9

     negative rho (up, down):  1.498E-04 0.000E+00

     total cpu time spent up to now is       17.6 secs

     total energy              =     -46.58933521 Ry
     estimated scf accuracy    <       0.00001711 Ry

     iteration # 14     ecut=    75.00 Ry     beta= 0.70
     Davidson diagonalization with overlap
     ethr =  7.13E-08,  avg # of iterations =  4.9

     negative rho (up, down):  1.445E-04 0.000E+00

     total cpu time spent up to now is       18.5 secs

     total energy              =     -46.58934297 Ry
     estimated scf accuracy    <       0.00000130 Ry

     iteration # 15     ecut=    75.00 Ry     beta= 0.70
     Davidson diagonalization with overlap
     ethr =  5.40E-09,  avg # of iterations =  7.1

     negative rho (up, down):  1.446E-04 0.000E+00

     total cpu time spent up to now is       19.8 secs

     total energy              =     -46.58934470 Ry
     estimated scf accuracy    <       0.00000082 Ry

     iteration # 16     ecut=    75.00 Ry     beta= 0.70
     Davidson diagonalization with overlap
     ethr =  3.40E-09,  avg # of iterations =  2.2

     negative rho (up, down):  1.443E-04 0.000E+00

     total cpu time spent up to now is       20.5 secs

     total energy              =     -46.58934468 Ry
     estimated scf accuracy    <       0.00000024 Ry

     iteration # 17     ecut=    75.00 Ry     beta= 0.70
     Davidson diagonalization with overlap
     ethr =  1.02E-09,  avg # of iterations =  5.2

     negative rho (up, down):  1.449E-04 0.000E+00

     total cpu time spent up to now is       21.4 secs

     total energy              =     -46.58934484 Ry
     estimated scf accuracy    <       0.00000002 Ry

     iteration # 18     ecut=    75.00 Ry     beta= 0.70
     Davidson diagonalization with overlap
     ethr =  6.58E-11,  avg # of iterations =  9.8

     negative rho (up, down):  1.450E-04 0.000E+00

     total cpu time spent up to now is       23.2 secs

     End of self-consistent calculation

          k = 0.0000 0.0000 0.0000 (  5827 PWs)   bands (ev):

   -33.6718 -24.2699 -24.2699 -20.4470 -20.1261 -20.1261 -11.1656  -2.9892
    -0.0143   2.3331   2.3331   2.6575   2.6575   3.3082   5.8652   6.0533

          k = 0.0000 0.0962 0.0000 (  5879 PWs)   bands (ev):

   -33.6624 -25.0608 -25.0496 -20.2582 -19.1002 -19.0490 -10.9869  -3.8146
    -0.2488   0.7992   1.0713   2.9579   4.4178   4.5308   6.0865   6.3059

          k = 0.0000 0.1925 0.0000 (  5881 PWs)   bands (ev):

   -33.6422 -26.3949 -26.3778 -19.7452 -17.0666 -16.8722 -10.4712  -5.7225
    -1.0360  -0.4556   0.8242   2.4096   5.5736   6.2125   6.7411   6.9030

          k = 0.0000 0.2887 0.0000 (  5891 PWs)   bands (ev):

   -33.6304 -27.6065 -27.5030 -18.9212 -14.8906 -14.4990  -9.8593  -7.5573
    -1.6696  -1.0829   0.6595   1.6005   5.0118   7.2155   7.6432   7.9190

          k = 0.0000 0.3849 0.0000 (  5869 PWs)   bands (ev):

   -33.6419 -28.5183 -28.2888 -17.8293 -13.0367 -12.5877 -10.5599  -7.2544
    -1.9672  -0.8417   0.2005   0.6058   3.8107   6.1111   6.7218   9.1252

          k = 0.0000 0.4811 0.0000 (  5815 PWs)   bands (ev):

   -33.6681 -29.0783 -28.7313 -16.5623 -12.9166 -11.8666 -10.5578  -5.3971
    -1.8893  -1.1242   0.2809   0.3986   2.8337   3.8193   4.9742  10.9340

          k = 0.0000-0.5774 0.0000 (  5814 PWs)   bands (ev):

   -33.6820 -29.2669 -28.8711 -15.6602 -13.8892 -11.4870 -10.1937  -3.6712
    -2.8629  -1.4149   0.9141   1.2630   1.9204   3.2343   3.2661  12.5840

          k = 0.0833 0.1443 0.0000 (  5871 PWs)   bands (ev):

   -33.6477 -26.0463 -26.0202 -19.9122 -17.6326 -17.5146 -10.6381  -5.0880
    -1.5159   0.6596   0.6684   3.1318   4.2708   6.1592   6.5972   6.7289

          k = 0.0833 0.2406 0.0000 (  5868 PWs)   bands (ev):

   -33.6330 -27.2005 -27.1523 -19.2355 -15.6178 -15.3649 -10.0188  -6.8341
    -2.7631  -0.0379   0.8271   2.6978   4.9803   6.1270   7.4743   7.5009

          k = 0.0833 0.3368 0.0000 (  5851 PWs)   bands (ev):

   -33.6369 -28.1867 -28.0479 -18.2617 -13.6621 -13.2799  -9.9508  -7.6536
    -3.1198  -0.7808   0.8564   1.7789   4.2332   6.5950   7.4106   8.4592

          k = 0.0833 0.4330 0.0000 (  5827 PWs)   bands (ev):

   -33.6626 -28.8817 -28.6222 -17.0519 -12.4638 -12.1132 -10.7703  -6.2985
    -2.5543  -1.3103   0.0794   1.4192   3.2438   4.6775   6.3678   9.9548

          k = 0.0833 0.5292 0.0000 (  5816 PWs)   bands (ev):

   -33.6884 -29.2378 -28.8921 -15.7825 -13.5275 -11.4974 -10.3572  -4.3150
    -2.3726  -1.5753  -0.2487   1.6194   1.9932   3.4590   4.8947  11.8636

          k = 0.1667 0.2887 0.0000 (  5853 PWs)   bands (ev):

   -33.6370 -28.0340 -27.9763 -18.3940 -13.8536 -13.6456  -9.6942  -7.5705
    -3.9955  -0.6563   0.9832   3.2148   4.5163   5.5785   7.6754   8.3296

          k = 0.1667 0.3849 0.0000 (  5823 PWs)   bands (ev):

   -33.6642 -28.7196 -28.5958 -17.2683 -12.4805 -12.2720 -10.4588  -6.7877
    -3.8549  -1.4584   0.7682   2.0510   4.0022   5.4933   6.8180   9.2390

          k = 0.1667 0.4811 0.0000 (  5806 PWs)   bands (ev):

   -33.7013 -29.1646 -28.9491 -15.9469 -12.7607 -11.5865 -10.6943  -5.0661
    -2.6962  -1.8510  -0.3805   1.5026   2.3244   4.5783   7.0543  10.5153

          k = 0.1667 0.5774 0.0000 (  5806 PWs)   bands (ev):

   -33.7188 -29.3175 -29.0611 -14.9070 -13.7475 -11.4565 -10.4487  -3.2656
    -3.2636  -1.5194  -0.0224   0.0722   1.5655   4.4744   6.7079  11.8197

          k = 0.2500 0.4330 0.0000 (  5808 PWs)   bands (ev):

   -33.7076 -29.1039 -29.0017 -16.0060 -12.2188 -11.7390 -10.9169  -5.3538
    -3.1663  -2.0013   0.5189   0.7311   2.5334   5.6972   7.7143   9.9733

          k = 0.2500 0.5292 0.0000 (  5811 PWs)   bands (ev):

   -33.7418 -29.3144 -29.1959 -14.6075 -13.0255 -12.0144 -10.6394  -3.6476
    -2.4493  -1.5639  -0.7302   0.2931   0.6374   5.9868   8.6709   9.8784

          k = 0.3333 0.5774 0.0000 (  5808 PWs)   bands (ev):

   -33.7593 -29.3228 -29.3228 -13.2654 -13.2653 -12.9669 -10.6311  -2.1383
    -2.1382  -2.0769  -0.5867  -0.5867  -0.3046   7.7955   7.7955  10.1230

     the Fermi energy is     2.2413 ev

!    total energy              =     -46.58934488 Ry
     estimated scf accuracy    <          1.2E-09 Ry
     smearing contrib. (-TS)   =       0.00045102 Ry
     internal energy E=F+TS    =     -46.58979590 Ry

     The total energy is F=E-TS. E is the sum of the following terms:
     one-electron contribution =   -1330.19216588 Ry
     hartree contribution      =     672.18734297 Ry
     xc contribution           =     -31.88886142 Ry
     ewald contribution        =     643.30388843 Ry

     convergence has been achieved in  18 iterations

     negative rho (up, down):  1.450E-04 0.000E+00

     Forces acting on atoms (cartesian axes, Ry/au):

     atom    1 type  1   force =     0.00000000    0.00000000  -24.39796952
     atom    2 type  1   force =     0.00000000    0.00000000   -2.86146512
     atom    3 type  1   force =    -0.00000000   -0.00000000  -23.48992609
     atom    4 type  1   force =     0.00000000    0.00000000   23.48990207
     atom    5 type  1   force =     0.00000000    0.00000000    2.86148366
     atom    6 type  1   force =     0.00000000    0.00000000   24.39797500

     Total force =    48.067144     Total SCF correction =     0.000132


     Computing stress (Cartesian axis) and pressure


     negative rho (up, down):  1.450E-04 0.000E+00
          total   stress  (Ry/bohr**3)                   (kbar)     P=     6444.74
   0.01732724   0.00000000   0.00000000         2548.92        0.00        0.00
   0.00000000   0.01732724  -0.00000000            0.00     2548.92       -0.00
   0.00000000   0.00000000   0.09677692            0.00        0.00    14236.38


     Writing all to output data dir /run/media/rfa/SATA/Skripsi/DFT/Graphene-copy/tmp/gr-abc-3L.save/ :
     XML data file, charge density, pseudopotentials, collected wavefunctions

     init_run     :      0.72s CPU      0.72s WALL (       1 calls)
     electrons    :     41.39s CPU     22.43s WALL (       1 calls)
     forces       :      0.21s CPU      0.13s WALL (       1 calls)
     stress       :      0.82s CPU      0.46s WALL (       1 calls)

     Called by init_run:
     wfcinit      :      0.44s CPU      0.27s WALL (       1 calls)
     potinit      :      0.01s CPU      0.02s WALL (       1 calls)
     hinit0       :      0.22s CPU      0.39s WALL (       1 calls)

     Called by electrons:
     c_bands      :     37.27s CPU     20.01s WALL (      18 calls)
     sum_band     :      3.55s CPU      1.91s WALL (      18 calls)
     v_of_rho     :      0.16s CPU      0.18s WALL (      19 calls)
     newd         :      0.24s CPU      0.20s WALL (      19 calls)
     mix_rho      :      0.15s CPU      0.10s WALL (      18 calls)

     Called by c_bands:
     init_us_2    :      0.97s CPU      0.50s WALL (     741 calls)
     cegterg      :     35.98s CPU     19.32s WALL (     342 calls)

     Called by *egterg:
     cdiaghg      :      2.41s CPU      1.23s WALL (    2982 calls)
     h_psi        :     24.25s CPU     13.33s WALL (    3001 calls)
     s_psi        :      1.68s CPU      0.87s WALL (    3001 calls)
     g_psi        :      0.30s CPU      0.15s WALL (    2640 calls)

     Called by h_psi:
     h_psi:calbec :      3.92s CPU      2.12s WALL (    3001 calls)
     vloc_psi     :     17.61s CPU      9.78s WALL (    3001 calls)
     add_vuspsi   :      2.37s CPU      1.22s WALL (    3001 calls)

     General routines
     calbec       :      4.72s CPU      2.54s WALL (    3666 calls)
     fft          :      0.29s CPU      0.45s WALL (     234 calls)
     ffts         :      0.01s CPU      0.01s WALL (      18 calls)
     fftw         :     15.98s CPU      8.99s WALL (   54690 calls)

     Parallel routines

     PWSCF        :     43.25s CPU     24.23s WALL


   This run was terminated on:  16: 8:58  16Apr2025            

=------------------------------------------------------------------------------=
   JOB DONE.
=------------------------------------------------------------------------------=
