
     Program PWSCF v.7.4.1 starts on 16Apr2025 at 14:35:38 

     This program is part of the open-source Quantum ESPRESSO suite
     for quantum simulation of materials; please cite
         "P. Giannozzi et al., J. Phys.:Condens. Matter 21 395502 (2009);
         "P. Giannozzi et al., J. Phys.:Condens. Matter 29 465901 (2017);
         "P. Giannozzi et al., J. Chem. Phys. 152 154105 (2020);
          URL http://www.quantum-espresso.org", 
     in publications or presentations arising from this work. More details at
     http://www.quantum-espresso.org/quote

     Parallel version (MPI), running on     7 processors

     MPI processes distributed on     1 nodes
     13721 MiB available memory on the printing compute node when the environment starts

     Waiting for input...
     Reading input from standard input

     Current dimensions of program PWSCF are:
     Max number of different atomic species (ntypx) = 10
     Max number of k-points (npk) =  40000
     Max angular momentum in pseudopotentials (lmaxx) =  4

     R & G space division:  proc/nbgrp/npool/nimage =       7
     Subspace diagonalization in iterative solution of the eigenvalue problem:
     a serial algorithm will be used


     Parallelization info
     --------------------
     sticks:   dense  smooth     PW     G-vecs:    dense   smooth      PW
     Min          51      51     15                 4783     4783     815
     Max          52      52     16                 4800     4800     838
     Sum         361     361    109                33523    33523    5791

     Using Slab Decomposition



     bravais-lattice index     =            4
     lattice parameter (alat)  =       4.6561  a.u.
     unit-cell volume          =     532.1899 (a.u.)^3
     number of atoms/cell      =            6
     number of atomic types    =            1
     number of electrons       =        24.00
     number of Kohn-Sham states=           16
     kinetic-energy cutoff     =      60.0000  Ry
     charge density cutoff     =     240.0000  Ry
     scf convergence threshold =      1.0E-08
     mixing beta               =       0.7000
     number of iterations used =            8  plain     mixing
     Exchange-correlation= PBE
                           (   1   4   3   4   0   0   0)

     celldm(1)=   4.656107  celldm(2)=   0.000000  celldm(3)=   6.087896
     celldm(4)=   0.000000  celldm(5)=   0.000000  celldm(6)=   0.000000

     crystal axes: (cart. coord. in units of alat)
               a(1) = (   1.000000   0.000000   0.000000 )  
               a(2) = (  -0.500000   0.866025   0.000000 )  
               a(3) = (   0.000000   0.000000   6.087896 )  

     reciprocal axes: (cart. coord. in units 2 pi/alat)
               b(1) = (  1.000000  0.577350 -0.000000 )  
               b(2) = (  0.000000  1.154701  0.000000 )  
               b(3) = (  0.000000 -0.000000  0.164260 )  


     PseudoPot. # 1 for C  read from file:
     /home/rfa/Skripsi/DFT/dft-graphene/pseudo/C.pbe-n-rrkjus_psl.0.1.UPF
     MD5 check sum: 96a6a315177d77e6c95bf6fd3870f9e3
     Pseudo is Ultrasoft + core correction, Zval =  4.0
     Generated using &quot;atomic&quot; code by A. Dal Corso  v.6.3MaX
     Using radial grid of 1073 points,  4 beta functions with: 
                l(1) =   0
                l(2) =   0
                l(3) =   1
                l(4) =   1
     Q(r) pseudized with 0 coefficients 


     atomic species   valence    mass     pseudopotential
     C                 4.00    12.01070     C ( 1.00)

     12 Sym. Ops. (no inversion) found



   Cartesian axes

     site n.     atom                  positions (alat units)
         1        C      tau(   1) = (   0.0000000   0.5773503   3.0439478  )
         2        C      tau(   2) = (   0.5000000   0.2886751   3.0439478  )
         3        C      tau(   3) = (   0.0000000   0.5773503   3.2468777  )
         4        C      tau(   4) = (   0.5000000   0.2886751   3.2468777  )
         5        C      tau(   5) = (   0.0000000   0.5773503   3.4498075  )
         6        C      tau(   6) = (   0.5000000   0.2886751   3.4498075  )

     number of k points=    19  Marzari-Vanderbilt smearing, width (Ry)=  0.0200
                       cart. coord. in units 2pi/alat
        k(    1) = (   0.0000000   0.0000000   0.0000000), wk =   0.0138889
        k(    2) = (   0.0000000   0.0962250   0.0000000), wk =   0.0833333
        k(    3) = (   0.0000000   0.1924501   0.0000000), wk =   0.0833333
        k(    4) = (   0.0000000   0.2886751   0.0000000), wk =   0.0833333
        k(    5) = (   0.0000000   0.3849002   0.0000000), wk =   0.0833333
        k(    6) = (   0.0000000   0.4811252   0.0000000), wk =   0.0833333
        k(    7) = (   0.0000000  -0.5773503   0.0000000), wk =   0.0416667
        k(    8) = (   0.0833333   0.1443376   0.0000000), wk =   0.0833333
        k(    9) = (   0.0833333   0.2405626   0.0000000), wk =   0.1666667
        k(   10) = (   0.0833333   0.3367877   0.0000000), wk =   0.1666667
        k(   11) = (   0.0833333   0.4330127   0.0000000), wk =   0.1666667
        k(   12) = (   0.0833333   0.5292377   0.0000000), wk =   0.1666667
        k(   13) = (   0.1666667   0.2886751   0.0000000), wk =   0.0833333
        k(   14) = (   0.1666667   0.3849002   0.0000000), wk =   0.1666667
        k(   15) = (   0.1666667   0.4811252   0.0000000), wk =   0.1666667
        k(   16) = (   0.1666667   0.5773503   0.0000000), wk =   0.0833333
        k(   17) = (   0.2500000   0.4330127   0.0000000), wk =   0.0833333
        k(   18) = (   0.2500000   0.5292377   0.0000000), wk =   0.1666667
        k(   19) = (   0.3333333   0.5773503   0.0000000), wk =   0.0277778

     Dense  grid:    33523 G-vectors     FFT dimensions: (  24,  24, 144)

     Estimated max dynamical RAM per process >      10.87 MB

     Estimated total dynamical RAM >      76.08 MB

     Check: negative core charge=   -0.000004

     Initial potential from superposition of free atoms

     starting charge      23.9998, renormalised to      24.0000

     negative rho (up, down):  1.432E-04 0.000E+00
     Starting wfcs are   24 randomized atomic wfcs

     total cpu time spent up to now is        1.1 secs

     per-process dynamical memory:    13.1 Mb

     Self-consistent Calculation

     iteration #  1     ecut=    60.00 Ry     beta= 0.70
     Davidson diagonalization with overlap
     ethr =  1.00E-02,  avg # of iterations = 10.7

     negative rho (up, down):  4.082E-03 0.000E+00

     total cpu time spent up to now is        2.6 secs

     total energy              =     -23.92111816 Ry
     estimated scf accuracy    <      24.82131852 Ry

     iteration #  2     ecut=    60.00 Ry     beta= 0.70
     Davidson diagonalization with overlap
     c_bands:  1 eigenvalues not converged
     c_bands:  1 eigenvalues not converged
     c_bands:  4 eigenvalues not converged
     c_bands:  1 eigenvalues not converged
     ethr =  1.00E-02,  avg # of iterations = 15.1

     total cpu time spent up to now is        4.3 secs

     total energy              =     -16.63044346 Ry
     estimated scf accuracy    <      37.73453678 Ry

     iteration #  3     ecut=    60.00 Ry     beta= 0.70
     Davidson diagonalization with overlap
     c_bands:  1 eigenvalues not converged
     ethr =  1.00E-02,  avg # of iterations = 12.2

     total cpu time spent up to now is        5.7 secs

     total energy              =     -32.04164147 Ry
     estimated scf accuracy    <       2.87586687 Ry

     iteration #  4     ecut=    60.00 Ry     beta= 0.70
     Davidson diagonalization with overlap
     ethr =  1.00E-02,  avg # of iterations =  1.6

     total cpu time spent up to now is        6.2 secs

     total energy              =     -31.46063801 Ry
     estimated scf accuracy    <       1.43294793 Ry

     iteration #  5     ecut=    60.00 Ry     beta= 0.70
     Davidson diagonalization with overlap
     ethr =  5.97E-03,  avg # of iterations =  2.2

     total cpu time spent up to now is        6.8 secs

     total energy              =     -31.36663565 Ry
     estimated scf accuracy    <       0.51417068 Ry

     iteration #  6     ecut=    60.00 Ry     beta= 0.70
     Davidson diagonalization with overlap
     ethr =  2.14E-03,  avg # of iterations =  4.6

     total cpu time spent up to now is        7.4 secs

     total energy              =     -31.45974964 Ry
     estimated scf accuracy    <       0.23258205 Ry

     iteration #  7     ecut=    60.00 Ry     beta= 0.70
     Davidson diagonalization with overlap
     ethr =  9.69E-04,  avg # of iterations =  2.7

     negative rho (up, down):  4.629E-04 0.000E+00

     total cpu time spent up to now is        8.0 secs

     total energy              =     -31.25295020 Ry
     estimated scf accuracy    <       0.27308482 Ry

     iteration #  8     ecut=    60.00 Ry     beta= 0.70
     Davidson diagonalization with overlap
     c_bands:  1 eigenvalues not converged
     c_bands:  1 eigenvalues not converged
     ethr =  9.69E-04,  avg # of iterations = 12.4

     negative rho (up, down):  1.066E-03 0.000E+00

     total cpu time spent up to now is        9.1 secs

     total energy              =     -31.35848804 Ry
     estimated scf accuracy    <       0.08318812 Ry

     iteration #  9     ecut=    60.00 Ry     beta= 0.70
     Davidson diagonalization with overlap
     ethr =  3.47E-04,  avg # of iterations =  4.7

     negative rho (up, down):  3.202E-03 0.000E+00

     total cpu time spent up to now is        9.7 secs

     total energy              =     -31.36125423 Ry
     estimated scf accuracy    <       0.04442212 Ry

     iteration # 10     ecut=    60.00 Ry     beta= 0.70
     Davidson diagonalization with overlap
     ethr =  1.85E-04,  avg # of iterations =  3.1

     negative rho (up, down):  1.388E-02 0.000E+00

     total cpu time spent up to now is       10.2 secs

     total energy              =     -31.36080776 Ry
     estimated scf accuracy    <       0.02641282 Ry

     iteration # 11     ecut=    60.00 Ry     beta= 0.70
     Davidson diagonalization with overlap
     ethr =  1.10E-04,  avg # of iterations =  7.2

     negative rho (up, down):  9.361E-03 0.000E+00

     total cpu time spent up to now is       10.9 secs

     total energy              =     -31.35756639 Ry
     estimated scf accuracy    <       0.01769484 Ry

     iteration # 12     ecut=    60.00 Ry     beta= 0.70
     Davidson diagonalization with overlap
     ethr =  7.37E-05,  avg # of iterations =  2.7

     negative rho (up, down):  5.985E-03 0.000E+00

     total cpu time spent up to now is       11.5 secs

     total energy              =     -31.35501505 Ry
     estimated scf accuracy    <       0.00797589 Ry

     iteration # 13     ecut=    60.00 Ry     beta= 0.70
     Davidson diagonalization with overlap
     c_bands:  1 eigenvalues not converged
     ethr =  3.32E-05,  avg # of iterations = 12.6

     negative rho (up, down):  4.506E-03 0.000E+00

     total cpu time spent up to now is       12.5 secs

     total energy              =     -31.35752579 Ry
     estimated scf accuracy    <       0.00018305 Ry

     iteration # 14     ecut=    60.00 Ry     beta= 0.70
     Davidson diagonalization with overlap
     c_bands:  1 eigenvalues not converged
     c_bands:  1 eigenvalues not converged
     c_bands:  2 eigenvalues not converged
     c_bands:  1 eigenvalues not converged
     c_bands:  1 eigenvalues not converged
     c_bands:  1 eigenvalues not converged
     c_bands:  4 eigenvalues not converged
     c_bands:  1 eigenvalues not converged
     c_bands:  1 eigenvalues not converged
     c_bands:  1 eigenvalues not converged
     ethr =  7.63E-07,  avg # of iterations = 17.9

     negative rho (up, down):  5.024E-03 0.000E+00

     total cpu time spent up to now is       14.7 secs

     total energy              =     -31.35841663 Ry
     estimated scf accuracy    <       0.00006381 Ry

     iteration # 15     ecut=    60.00 Ry     beta= 0.70
     Davidson diagonalization with overlap
     c_bands:  1 eigenvalues not converged
     c_bands:  2 eigenvalues not converged
     ethr =  2.66E-07,  avg # of iterations =  6.2

     negative rho (up, down):  5.042E-03 0.000E+00

     total cpu time spent up to now is       15.4 secs

     total energy              =     -31.35841537 Ry
     estimated scf accuracy    <       0.00010929 Ry

     iteration # 16     ecut=    60.00 Ry     beta= 0.70
     Davidson diagonalization with overlap
     c_bands:  1 eigenvalues not converged
     c_bands:  1 eigenvalues not converged
     ethr =  2.66E-07,  avg # of iterations =  9.1

     negative rho (up, down):  4.935E-03 0.000E+00

     total cpu time spent up to now is       16.3 secs

     total energy              =     -31.35841518 Ry
     estimated scf accuracy    <       0.00019563 Ry

     iteration # 17     ecut=    60.00 Ry     beta= 0.70
     Davidson diagonalization with overlap
     ethr =  2.66E-07,  avg # of iterations =  3.1

     negative rho (up, down):  4.364E-03 0.000E+00

     total cpu time spent up to now is       16.9 secs

     total energy              =     -31.35837067 Ry
     estimated scf accuracy    <       0.00011199 Ry

     iteration # 18     ecut=    60.00 Ry     beta= 0.70
     Davidson diagonalization with overlap
     ethr =  2.66E-07,  avg # of iterations =  3.2

     negative rho (up, down):  4.358E-03 0.000E+00

     total cpu time spent up to now is       17.4 secs

     total energy              =     -31.35838131 Ry
     estimated scf accuracy    <       0.00001174 Ry

     iteration # 19     ecut=    60.00 Ry     beta= 0.70
     Davidson diagonalization with overlap
     ethr =  4.89E-08,  avg # of iterations =  5.1

     negative rho (up, down):  4.359E-03 0.000E+00

     total cpu time spent up to now is       18.2 secs

     total energy              =     -31.35838878 Ry
     estimated scf accuracy    <       0.00000098 Ry

     iteration # 20     ecut=    60.00 Ry     beta= 0.70
     Davidson diagonalization with overlap
     ethr =  4.07E-09,  avg # of iterations =  7.8

     negative rho (up, down):  4.356E-03 0.000E+00

     total cpu time spent up to now is       19.4 secs

     total energy              =     -31.35839049 Ry
     estimated scf accuracy    <       0.00000072 Ry

     iteration # 21     ecut=    60.00 Ry     beta= 0.70
     Davidson diagonalization with overlap
     ethr =  3.02E-09,  avg # of iterations =  2.8

     negative rho (up, down):  4.354E-03 0.000E+00

     total cpu time spent up to now is       19.9 secs

     total energy              =     -31.35839134 Ry
     estimated scf accuracy    <       0.00000069 Ry

     iteration # 22     ecut=    60.00 Ry     beta= 0.70
     Davidson diagonalization with overlap
     ethr =  2.86E-09,  avg # of iterations =  6.1

     negative rho (up, down):  4.356E-03 0.000E+00

     total cpu time spent up to now is       20.8 secs

     total energy              =     -31.35839042 Ry
     estimated scf accuracy    <       0.00000504 Ry

     iteration # 23     ecut=    60.00 Ry     beta= 0.70
     Davidson diagonalization with overlap
     ethr =  2.86E-09,  avg # of iterations =  3.3

     negative rho (up, down):  4.355E-03 0.000E+00

     total cpu time spent up to now is       21.4 secs

     total energy              =     -31.35839061 Ry
     estimated scf accuracy    <       0.00000161 Ry

     iteration # 24     ecut=    60.00 Ry     beta= 0.70
     Davidson diagonalization with overlap
     ethr =  2.86E-09,  avg # of iterations =  1.0

     negative rho (up, down):  4.356E-03 0.000E+00

     total cpu time spent up to now is       21.8 secs

     total energy              =     -31.35839047 Ry
     estimated scf accuracy    <       0.00000138 Ry

     iteration # 25     ecut=    60.00 Ry     beta= 0.70
     Davidson diagonalization with overlap
     ethr =  2.86E-09,  avg # of iterations =  1.6

     negative rho (up, down):  4.356E-03 0.000E+00

     total cpu time spent up to now is       22.3 secs

     total energy              =     -31.35839043 Ry
     estimated scf accuracy    <       0.00000095 Ry

     iteration # 26     ecut=    60.00 Ry     beta= 0.70
     Davidson diagonalization with overlap
     ethr =  2.86E-09,  avg # of iterations =  1.5

     negative rho (up, down):  4.355E-03 0.000E+00

     total cpu time spent up to now is       22.8 secs

     total energy              =     -31.35839036 Ry
     estimated scf accuracy    <       0.00000069 Ry

     iteration # 27     ecut=    60.00 Ry     beta= 0.70
     Davidson diagonalization with overlap
     ethr =  2.86E-09,  avg # of iterations =  1.9

     negative rho (up, down):  4.355E-03 0.000E+00

     total cpu time spent up to now is       23.3 secs

     total energy              =     -31.35839034 Ry
     estimated scf accuracy    <       0.00000041 Ry

     iteration # 28     ecut=    60.00 Ry     beta= 0.70
     Davidson diagonalization with overlap
     ethr =  1.73E-09,  avg # of iterations =  2.4

     negative rho (up, down):  4.356E-03 0.000E+00

     total cpu time spent up to now is       23.9 secs

     total energy              =     -31.35839025 Ry
     estimated scf accuracy    <       0.00000024 Ry

     iteration # 29     ecut=    60.00 Ry     beta= 0.70
     Davidson diagonalization with overlap
     ethr =  1.00E-09,  avg # of iterations =  5.4

     negative rho (up, down):  4.356E-03 0.000E+00

     total cpu time spent up to now is       24.6 secs

     total energy              =     -31.35839038 Ry
     estimated scf accuracy    <       0.00000004 Ry

     iteration # 30     ecut=    60.00 Ry     beta= 0.70
     Davidson diagonalization with overlap
     ethr =  1.85E-10,  avg # of iterations =  4.8

     negative rho (up, down):  4.355E-03 0.000E+00

     total cpu time spent up to now is       25.3 secs

     total energy              =     -31.35839039 Ry
     estimated scf accuracy    <       0.00000002 Ry

     iteration # 31     ecut=    60.00 Ry     beta= 0.70
     Davidson diagonalization with overlap
     ethr =  1.01E-10,  avg # of iterations =  2.2

     negative rho (up, down):  4.356E-03 0.000E+00

     total cpu time spent up to now is       25.9 secs

     End of self-consistent calculation

          k = 0.0000 0.0000 0.0000 (  4149 PWs)   bands (ev):

   -30.7786 -30.7786 -26.4579 -22.1626 -17.9617 -17.9617 -10.2829  -8.9091
    -4.5182  -3.6126  -3.6126   4.2801   4.8430   5.3830   6.1044   7.8426

          k = 0.0000 0.0962 0.0000 (  4170 PWs)   bands (ev):

   -30.9615 -30.8668 -26.8118 -22.0350 -17.5780 -17.0558 -10.1172  -9.4352
    -4.4341  -3.8709  -3.3564   3.9463   5.0700   5.5949   6.3269   7.9403

          k = 0.0000 0.1925 0.0000 (  4194 PWs)   bands (ev):

   -31.4220 -31.1993 -27.3781 -21.6491 -16.5469 -14.7969 -10.6881  -9.6245
    -4.4991  -4.2432  -2.8310   3.0011   5.7503   6.2288   6.9930   8.1731

          k = 0.0000 0.2887 0.0000 (  4186 PWs)   bands (ev):

   -31.9782 -31.7986 -27.6119 -21.0157 -15.1541 -12.2482 -11.8134  -8.8111
    -5.2254  -4.0435  -2.3162   1.5875   6.8786   7.2455   8.0811   8.4465

          k = 0.0000 0.3849 0.0000 (  4180 PWs)   bands (ev):

   -32.4718 -32.4482 -27.5416 -20.1599 -13.8575 -13.7436  -8.6297  -7.5557
    -5.8486  -3.9208  -1.8451  -0.0893   6.9966   7.9401   8.3926   9.0881

          k = 0.0000 0.4811 0.0000 (  4172 PWs)   bands (ev):

   -32.9153 -32.8019 -27.3916 -19.2140 -15.3065 -12.6809  -6.8627  -6.2567
    -4.6895  -3.8863  -1.7031  -1.4651   3.8249   7.3381   7.6614  10.5538

          k = 0.0000-0.5774 0.0000 (  4184 PWs)   bands (ev):

   -33.0822 -32.9178 -27.3239 -18.6438 -16.0513 -12.2820  -6.3981  -6.1793
    -3.8884  -2.6001  -2.3246  -1.3086   1.5602   6.8103   7.4886  12.4639

          k = 0.0833 0.1443 0.0000 (  4169 PWs)   bands (ev):

   -31.3787 -30.9697 -27.2654 -21.7747 -16.8440 -15.5160 -10.2984  -9.7880
    -4.6312  -3.9873  -2.9667   3.3110   5.5236   6.0180   6.7712   8.1053

          k = 0.0833 0.2406 0.0000 (  4180 PWs)   bands (ev):

   -32.0780 -31.2003 -27.6650 -21.2629 -15.5778 -12.9884 -11.6461  -9.1361
    -5.4177  -3.6977  -2.4499   2.1522   6.4276   6.8536   7.6492   8.4293

          k = 0.0833 0.3368 0.0000 (  4175 PWs)   bands (ev):

   -32.8062 -31.5649 -27.7601 -20.5188 -14.1180 -13.1690  -9.9447  -8.1484
    -6.2166  -3.3932  -1.9784   0.6358   7.6929   7.9305   8.0883   8.7638

          k = 0.0833 0.4330 0.0000 (  4187 PWs)   bands (ev):

   -33.3811 -31.9175 -27.6618 -19.5993 -14.6724 -12.8273  -7.4123  -6.8176
    -6.1667  -3.1993  -1.5736  -1.0133   5.2767   7.4842   7.9887   9.6459

          k = 0.0833 0.5292 0.0000 (  4195 PWs)   bands (ev):

   -33.6931 -32.1243 -27.5578 -18.7270 -15.8638 -12.0592  -7.1341  -6.2489
    -3.1259  -3.1041  -2.3366  -1.3098   2.2595   6.3265   7.6856  11.8117

          k = 0.1667 0.2887 0.0000 (  4170 PWs)   bands (ev):

   -32.9244 -31.1386 -27.9587 -20.6379 -14.1523 -12.8705 -10.5167  -8.3214
    -6.5557  -3.0492  -1.9610   0.9242   7.5042   7.8534   8.1864   8.9261

          k = 0.1667 0.3849 0.0000 (  4172 PWs)   bands (ev):

   -33.6509 -31.1554 -28.1087 -19.8070 -14.2055 -12.6795  -7.9004  -7.5222
    -6.9601  -2.4835  -1.5482  -0.5322   5.9444   7.5682   8.6573   9.1668

          k = 0.1667 0.4811 0.0000 (  4170 PWs)   bands (ev):

   -34.1267 -31.2219 -28.1247 -18.8582 -15.4861 -11.5654  -8.1449  -6.3834
    -4.1953  -2.1001  -1.9986  -1.2754   3.4564   5.3831   8.2906  10.7317

          k = 0.1667 0.5774 0.0000 (  4178 PWs)   bands (ev):

   -34.2916 -31.2569 -28.1122 -18.2673 -16.1976 -11.1467  -8.3577  -5.6576
    -2.8481  -2.0228  -1.9716  -1.1723   1.3514   4.7828   8.0958  11.2699

          k = 0.2500 0.4330 0.0000 (  4156 PWs)   bands (ev):

   -34.2750 -30.7337 -28.5126 -18.9224 -15.2911 -11.2872  -8.5678  -6.4539
    -4.6938  -1.8171  -1.7422  -1.1940   4.2378   4.7033   9.0979   9.6553

          k = 0.2500 0.5292 0.0000 (  4161 PWs)   bands (ev):

   -34.6032 -30.4302 -28.8088 -18.0097 -16.2940 -10.4219  -9.1354  -5.2803
    -3.0404  -2.1008  -1.2788  -1.0507   1.7927   3.3703   8.8575  10.2097

          k = 0.3333 0.5774 0.0000 (  4152 PWs)   bands (ev):

   -34.7662 -29.6035 -29.6035 -17.1314 -17.1314  -9.9458  -9.5009  -4.1346
    -4.1346  -0.9730  -0.9730  -0.0484  -0.0484   2.5250   9.5497   9.5498

     the Fermi energy is     2.1474 ev

!    total energy              =     -31.35839039 Ry
     estimated scf accuracy    <          5.7E-09 Ry
     smearing contrib. (-TS)   =      -0.00023076 Ry
     internal energy E=F+TS    =     -31.35815963 Ry

     The total energy is F=E-TS. E is the sum of the following terms:
     one-electron contribution =   -1369.61078210 Ry
     hartree contribution      =     692.86779442 Ry
     xc contribution           =     -35.39181479 Ry
     ewald contribution        =     680.77664284 Ry

     convergence has been achieved in  31 iterations

     negative rho (up, down):  4.356E-03 0.000E+00

     Forces acting on atoms (cartesian axes, Ry/au):

     atom    1 type  1   force =    -0.00000000   -0.00000000  -21.59496396
     atom    2 type  1   force =     0.00000000    0.00000000  -21.59496396
     atom    3 type  1   force =     0.00000000    0.00000000    0.00220835
     atom    4 type  1   force =     0.00000000   -0.00000000    0.00220835
     atom    5 type  1   force =    -0.00000000    0.00000000   21.59275561
     atom    6 type  1   force =     0.00000000   -0.00000000   21.59275561

     Total force =    43.187720     Total SCF correction =     0.000316


     Computing stress (Cartesian axis) and pressure


     negative rho (up, down):  4.356E-03 0.000E+00
          total   stress  (Ry/bohr**3)                   (kbar)     P=     8664.63
   0.01225105   0.00000000  -0.00000000         1802.19        0.00       -0.00
   0.00000000   0.01225105   0.00000000            0.00     1802.19        0.00
   0.00000000  -0.00000000   0.15220081            0.00       -0.00    22389.51


     Writing all to output data dir /home/rfa/Skripsi/DFT/dft-graphene/tmp/gr-aa-3L.save/ :
     XML data file, charge density, pseudopotentials, collected wavefunctions

     init_run     :      0.82s CPU      1.02s WALL (       1 calls)
     electrons    :     45.42s CPU     24.77s WALL (       1 calls)
     forces       :      0.12s CPU      0.07s WALL (       1 calls)
     stress       :      0.42s CPU      0.24s WALL (       1 calls)

     Called by init_run:
     wfcinit      :      0.41s CPU      0.26s WALL (       1 calls)
     potinit      :      0.01s CPU      0.01s WALL (       1 calls)
     hinit0       :      0.37s CPU      0.70s WALL (       1 calls)

     Called by electrons:
     c_bands      :     39.71s CPU     21.46s WALL (      31 calls)
     sum_band     :      4.93s CPU      2.66s WALL (      31 calls)
     v_of_rho     :      0.25s CPU      0.25s WALL (      32 calls)
     newd         :      0.26s CPU      0.24s WALL (      32 calls)
     mix_rho      :      0.24s CPU      0.13s WALL (      31 calls)

     Called by c_bands:
     init_us_2    :      0.95s CPU      0.49s WALL (    1235 calls)
     cegterg      :     38.24s CPU     20.61s WALL (     589 calls)

     Called by *egterg:
     cdiaghg      :      2.98s CPU      1.55s WALL (    3954 calls)
     h_psi        :     28.30s CPU     15.49s WALL (    3973 calls)
     s_psi        :      0.91s CPU      0.47s WALL (    3973 calls)
     g_psi        :      0.24s CPU      0.12s WALL (    3365 calls)

     Called by h_psi:
     h_psi:calbec :      3.48s CPU      1.96s WALL (    3973 calls)
     vloc_psi     :     22.69s CPU     12.39s WALL (    3973 calls)
     add_vuspsi   :      1.70s CPU      0.91s WALL (    3973 calls)

     General routines
     calbec       :      4.14s CPU      2.30s WALL (    4885 calls)
     fft          :      0.45s CPU      0.79s WALL (     377 calls)
     ffts         :      0.02s CPU      0.01s WALL (      31 calls)
     fftw         :     21.96s CPU     12.09s WALL (   73324 calls)

     Parallel routines

     PWSCF        :     46.89s CPU     26.53s WALL


   This run was terminated on:  14:36: 5  16Apr2025            

=------------------------------------------------------------------------------=
   JOB DONE.
=------------------------------------------------------------------------------=
