
     Program PWSCF v.7.4.1 starts on 18Apr2025 at  1:51:46 

     This program is part of the open-source Quantum ESPRESSO suite
     for quantum simulation of materials; please cite
         "P. Giannozzi et al., J. Phys.:Condens. Matter 21 395502 (2009);
         "P. Giannozzi et al., J. Phys.:Condens. Matter 29 465901 (2017);
         "P. Giannozzi et al., J. Chem. Phys. 152 154105 (2020);
          URL http://www.quantum-espresso.org", 
     in publications or presentations arising from this work. More details at
     http://www.quantum-espresso.org/quote

     Parallel version (MPI), running on     7 processors

     MPI processes distributed on     1 nodes
     5763 MiB available memory on the printing compute node when the environment starts

     Waiting for input...
     Reading input from standard input

     Current dimensions of program PWSCF are:
     Max number of different atomic species (ntypx) = 10
     Max number of k-points (npk) =  40000
     Max angular momentum in pseudopotentials (lmaxx) =  4

     R & G space division:  proc/nbgrp/npool/nimage =       7
     Subspace diagonalization in iterative solution of the eigenvalue problem:
     a serial algorithm will be used


     Parallelization info
     --------------------
     sticks:   dense  smooth     PW     G-vecs:    dense   smooth      PW
     Min          17      17      5                  919      919     181
     Max          18      18      6                  934      934     204
     Sum         121     121     37                 6489     6489    1321

     Using Slab Decomposition



     bravais-lattice index     =            4
     lattice parameter (alat)  =       4.6561  a.u.
     unit-cell volume          =     532.1899 (a.u.)^3
     number of atoms/cell      =            6
     number of atomic types    =            1
     number of electrons       =        24.00
     number of Kohn-Sham states=           16
     kinetic-energy cutoff     =      20.0000  Ry
     charge density cutoff     =      80.0000  Ry
     scf convergence threshold =      1.0E-08
     mixing beta               =       0.7000
     number of iterations used =            8  plain     mixing
     Exchange-correlation= PBE
                           (   1   4   3   4   0   0   0)

     celldm(1)=   4.656107  celldm(2)=   0.000000  celldm(3)=   6.087896
     celldm(4)=   0.000000  celldm(5)=   0.000000  celldm(6)=   0.000000

     crystal axes: (cart. coord. in units of alat)
               a(1) = (   1.000000   0.000000   0.000000 )  
               a(2) = (  -0.500000   0.866025   0.000000 )  
               a(3) = (   0.000000   0.000000   6.087896 )  

     reciprocal axes: (cart. coord. in units 2 pi/alat)
               b(1) = (  1.000000  0.577350 -0.000000 )  
               b(2) = (  0.000000  1.154701  0.000000 )  
               b(3) = (  0.000000 -0.000000  0.164260 )  


     PseudoPot. # 1 for C  read from file:
     /run/media/rfa/SATA/Skripsi/DFT/dft-graphene/pseudo/C.pbe-n-rrkjus_psl.0.1.UPF
     MD5 check sum: 96a6a315177d77e6c95bf6fd3870f9e3
     Pseudo is Ultrasoft + core correction, Zval =  4.0
     Generated using &quot;atomic&quot; code by A. Dal Corso  v.6.3MaX
     Using radial grid of 1073 points,  4 beta functions with: 
                l(1) =   0
                l(2) =   0
                l(3) =   1
                l(4) =   1
     Q(r) pseudized with 0 coefficients 


     atomic species   valence    mass     pseudopotential
     C                 4.00    12.01070     C ( 1.00)

     12 Sym. Ops. (no inversion) found



   Cartesian axes

     site n.     atom                  positions (alat units)
         1        C      tau(   1) = (   0.0000000   0.5773503   3.0439478  )
         2        C      tau(   2) = (   0.5000000   0.2886751   3.0439478  )
         3        C      tau(   3) = (   0.0000000   0.5773503   3.2468777  )
         4        C      tau(   4) = (   0.5000000   0.2886751   3.2468777  )
         5        C      tau(   5) = (   0.0000000   0.5773503   3.4498075  )
         6        C      tau(   6) = (   0.5000000   0.2886751   3.4498075  )

     number of k points=    19  Marzari-Vanderbilt smearing, width (Ry)=  0.0200
                       cart. coord. in units 2pi/alat
        k(    1) = (   0.0000000   0.0000000   0.0000000), wk =   0.0138889
        k(    2) = (   0.0000000   0.0962250   0.0000000), wk =   0.0833333
        k(    3) = (   0.0000000   0.1924501   0.0000000), wk =   0.0833333
        k(    4) = (   0.0000000   0.2886751   0.0000000), wk =   0.0833333
        k(    5) = (   0.0000000   0.3849002   0.0000000), wk =   0.0833333
        k(    6) = (   0.0000000   0.4811252   0.0000000), wk =   0.0833333
        k(    7) = (   0.0000000  -0.5773503   0.0000000), wk =   0.0416667
        k(    8) = (   0.0833333   0.1443376   0.0000000), wk =   0.0833333
        k(    9) = (   0.0833333   0.2405626   0.0000000), wk =   0.1666667
        k(   10) = (   0.0833333   0.3367877   0.0000000), wk =   0.1666667
        k(   11) = (   0.0833333   0.4330127   0.0000000), wk =   0.1666667
        k(   12) = (   0.0833333   0.5292377   0.0000000), wk =   0.1666667
        k(   13) = (   0.1666667   0.2886751   0.0000000), wk =   0.0833333
        k(   14) = (   0.1666667   0.3849002   0.0000000), wk =   0.1666667
        k(   15) = (   0.1666667   0.4811252   0.0000000), wk =   0.1666667
        k(   16) = (   0.1666667   0.5773503   0.0000000), wk =   0.0833333
        k(   17) = (   0.2500000   0.4330127   0.0000000), wk =   0.0833333
        k(   18) = (   0.2500000   0.5292377   0.0000000), wk =   0.1666667
        k(   19) = (   0.3333333   0.5773503   0.0000000), wk =   0.0277778

     Dense  grid:     6489 G-vectors     FFT dimensions: (  15,  15,  81)

     Estimated max dynamical RAM per process >       2.26 MB

     Estimated total dynamical RAM >      15.84 MB

     Check: negative core charge=   -0.000373

     Initial potential from superposition of free atoms

     starting charge      23.9998, renormalised to      24.0000

     negative rho (up, down):  1.426E-02 0.000E+00
     Starting wfcs are   24 randomized atomic wfcs

     total cpu time spent up to now is        0.2 secs

     per-process dynamical memory:     8.3 Mb

     Self-consistent Calculation

     iteration #  1     ecut=    20.00 Ry     beta= 0.70
     Davidson diagonalization with overlap
     ethr =  1.00E-02,  avg # of iterations =  4.8

     negative rho (up, down):  2.229E-01 0.000E+00

     total cpu time spent up to now is        0.4 secs

     total energy              =     -18.17981349 Ry
     estimated scf accuracy    <      13.20923844 Ry

     iteration #  2     ecut=    20.00 Ry     beta= 0.70
     Davidson diagonalization with overlap
     ethr =  1.00E-02,  avg # of iterations =  8.2

     negative rho (up, down):  1.233E-02 0.000E+00

     total cpu time spent up to now is        0.6 secs

     total energy              =      -9.01074081 Ry
     estimated scf accuracy    <      39.48087202 Ry

     iteration #  3     ecut=    20.00 Ry     beta= 0.70
     Davidson diagonalization with overlap
     ethr =  1.00E-02,  avg # of iterations =  7.9

     negative rho (up, down):  5.404E-02 0.000E+00

     total cpu time spent up to now is        0.8 secs

     total energy              =     -23.07298033 Ry
     estimated scf accuracy    <       1.86343032 Ry

     iteration #  4     ecut=    20.00 Ry     beta= 0.70
     Davidson diagonalization with overlap
     ethr =  7.76E-03,  avg # of iterations =  1.7

     negative rho (up, down):  1.094E-01 0.000E+00

     total cpu time spent up to now is        0.8 secs

     total energy              =     -22.65380526 Ry
     estimated scf accuracy    <       1.06171429 Ry

     iteration #  5     ecut=    20.00 Ry     beta= 0.70
     Davidson diagonalization with overlap
     ethr =  4.42E-03,  avg # of iterations =  1.4

     negative rho (up, down):  7.440E-02 0.000E+00

     total cpu time spent up to now is        0.9 secs

     total energy              =     -22.94538108 Ry
     estimated scf accuracy    <       0.45266362 Ry

     iteration #  6     ecut=    20.00 Ry     beta= 0.70
     Davidson diagonalization with overlap
     ethr =  1.89E-03,  avg # of iterations =  2.1

     negative rho (up, down):  2.123E-01 0.000E+00

     total cpu time spent up to now is        1.0 secs

     total energy              =     -22.32472433 Ry
     estimated scf accuracy    <       0.78448416 Ry

     iteration #  7     ecut=    20.00 Ry     beta= 0.70
     Davidson diagonalization with overlap
     ethr =  1.89E-03,  avg # of iterations =  3.7

     negative rho (up, down):  2.257E-01 0.000E+00

     total cpu time spent up to now is        1.1 secs

     total energy              =     -22.35754890 Ry
     estimated scf accuracy    <       0.04435771 Ry

     iteration #  8     ecut=    20.00 Ry     beta= 0.70
     Davidson diagonalization with overlap
     ethr =  1.85E-04,  avg # of iterations =  5.6

     negative rho (up, down):  2.151E-01 0.000E+00

     total cpu time spent up to now is        1.2 secs

     total energy              =     -22.36975724 Ry
     estimated scf accuracy    <       0.02614539 Ry

     iteration #  9     ecut=    20.00 Ry     beta= 0.70
     Davidson diagonalization with overlap
     ethr =  1.09E-04,  avg # of iterations =  2.3

     negative rho (up, down):  2.543E-01 0.000E+00

     total cpu time spent up to now is        1.3 secs

     total energy              =     -22.33935065 Ry
     estimated scf accuracy    <       0.03875704 Ry

     iteration # 10     ecut=    20.00 Ry     beta= 0.70
     Davidson diagonalization with overlap
     ethr =  1.09E-04,  avg # of iterations =  6.0

     negative rho (up, down):  2.746E-01 0.000E+00

     total cpu time spent up to now is        1.5 secs

     total energy              =     -22.33600677 Ry
     estimated scf accuracy    <       0.00466708 Ry

     iteration # 11     ecut=    20.00 Ry     beta= 0.70
     Davidson diagonalization with overlap
     c_bands:  1 eigenvalues not converged
     ethr =  1.94E-05,  avg # of iterations = 10.4

     negative rho (up, down):  2.782E-01 0.000E+00

     total cpu time spent up to now is        1.6 secs

     total energy              =     -22.33668934 Ry
     estimated scf accuracy    <       0.00012918 Ry

     iteration # 12     ecut=    20.00 Ry     beta= 0.70
     Davidson diagonalization with overlap
     ethr =  5.38E-07,  avg # of iterations =  8.5

     negative rho (up, down):  2.782E-01 0.000E+00

     total cpu time spent up to now is        1.8 secs

     total energy              =     -22.33653785 Ry
     estimated scf accuracy    <       0.00046510 Ry

     iteration # 13     ecut=    20.00 Ry     beta= 0.70
     Davidson diagonalization with overlap
     ethr =  5.38E-07,  avg # of iterations =  2.5

     negative rho (up, down):  2.775E-01 0.000E+00

     total cpu time spent up to now is        1.9 secs

     total energy              =     -22.33653002 Ry
     estimated scf accuracy    <       0.00008794 Ry

     iteration # 14     ecut=    20.00 Ry     beta= 0.70
     Davidson diagonalization with overlap
     ethr =  3.66E-07,  avg # of iterations =  2.9

     negative rho (up, down):  2.775E-01 0.000E+00

     total cpu time spent up to now is        2.0 secs

     total energy              =     -22.33654461 Ry
     estimated scf accuracy    <       0.00000196 Ry

     iteration # 15     ecut=    20.00 Ry     beta= 0.70
     Davidson diagonalization with overlap
     ethr =  8.18E-09,  avg # of iterations =  3.9

     negative rho (up, down):  2.776E-01 0.000E+00

     total cpu time spent up to now is        2.1 secs

     total energy              =     -22.33654246 Ry
     estimated scf accuracy    <       0.00000055 Ry

     iteration # 16     ecut=    20.00 Ry     beta= 0.70
     Davidson diagonalization with overlap
     ethr =  2.29E-09,  avg # of iterations =  2.0

     negative rho (up, down):  2.776E-01 0.000E+00

     total cpu time spent up to now is        2.2 secs

     total energy              =     -22.33654238 Ry
     estimated scf accuracy    <       0.00000129 Ry

     iteration # 17     ecut=    20.00 Ry     beta= 0.70
     Davidson diagonalization with overlap
     ethr =  2.29E-09,  avg # of iterations =  2.0

     negative rho (up, down):  2.776E-01 0.000E+00

     total cpu time spent up to now is        2.3 secs

     total energy              =     -22.33654237 Ry
     estimated scf accuracy    <       0.00000006 Ry

     iteration # 18     ecut=    20.00 Ry     beta= 0.70
     Davidson diagonalization with overlap
     ethr =  2.68E-10,  avg # of iterations =  3.9

     negative rho (up, down):  2.776E-01 0.000E+00

     total cpu time spent up to now is        2.4 secs

     total energy              =     -22.33654264 Ry
     estimated scf accuracy    <       0.00000002 Ry

     iteration # 19     ecut=    20.00 Ry     beta= 0.70
     Davidson diagonalization with overlap
     ethr =  6.40E-11,  avg # of iterations =  2.0

     negative rho (up, down):  2.776E-01 0.000E+00

     total cpu time spent up to now is        2.5 secs

     End of self-consistent calculation

          k = 0.0000 0.0000 0.0000 (   815 PWs)   bands (ev):

   -37.5595 -37.5595 -30.0434 -20.3216 -20.3216 -18.0381  -7.7586  -7.3088
    -6.5285  -6.5285  -1.2991   3.0093   3.1934   4.6608   5.8059   8.1624

          k = 0.0000 0.0962 0.0000 (   825 PWs)   bands (ev):

   -37.7549 -37.5980 -30.3253 -20.0066 -19.5913 -17.9516  -7.8070  -7.4199
    -7.1413  -7.0929  -2.2968   3.2311   3.4183   4.8720   6.0132   7.4374

          k = 0.0000 0.1925 0.0000 (   824 PWs)   bands (ev):

   -38.0524 -37.5782 -31.1914 -18.9349 -18.6211 -17.5657  -8.6577  -7.7240
    -7.2575  -6.8408  -1.9205   3.9130   4.0846   5.5436   6.6374   7.2674

          k = 0.0000 0.2887 0.0000 (   796 PWs)   bands (ev):

   -38.2472 -37.0166 -30.9228 -16.8987 -16.5317 -13.8438  -9.9164  -8.3456
    -6.3480  -6.2047  -2.1007   4.5564   5.0527   5.1936   6.6632   7.2037

          k = 0.0000 0.3849 0.0000 (   806 PWs)   bands (ev):

   -38.7457 -37.0352 -30.9331 -16.9710 -16.1638 -11.5298 -11.2467  -9.0594
    -5.7011  -5.0752  -2.6430   1.6518   4.1850   6.6377   6.7012   8.2273

          k = 0.0000 0.4811 0.0000 (   800 PWs)   bands (ev):

   -39.0640 -37.5575 -30.7841 -16.4090 -15.1149 -12.9064  -9.3669  -8.3206
    -4.5738  -2.9654  -2.8553  -0.8581   1.5888   8.0271   8.5125   8.6919

          k = 0.0000-0.5774 0.0000 (   806 PWs)   bands (ev):

   -39.1805 -37.7468 -30.7209 -16.1867 -14.2352 -13.9571  -9.5567  -6.6603
    -4.1093  -3.5872  -2.3625  -0.8995  -0.4825   7.1036   9.2675  11.0656

          k = 0.0833 0.1443 0.0000 (   809 PWs)   bands (ev):

   -37.9172 -37.3505 -30.6337 -19.0259 -17.8427 -17.6285  -8.0322  -7.4084
    -7.3211  -6.7457  -1.7304   3.6888   3.8671   5.3274   6.4442   8.2835

          k = 0.0833 0.2406 0.0000 (   817 PWs)   bands (ev):

   -38.5275 -37.0540 -31.6866 -18.7492 -17.1479 -16.6884  -9.3497  -8.3358
    -6.6703  -6.4470  -1.7650   4.5947   4.7525   5.6661   6.2214   7.2683

          k = 0.0833 0.3368 0.0000 (   808 PWs)   bands (ev):

   -38.9576 -36.7021 -31.4964 -16.5850 -16.4839 -12.5480 -10.8767  -9.0256
    -6.0704  -5.6833  -2.3205   2.7527   5.2553   5.9549   6.0627   7.5515

          k = 0.0833 0.4330 0.0000 (   803 PWs)   bands (ev):

   -39.2367 -36.8053 -31.2052 -15.5608 -15.3104 -12.1764  -9.6081  -9.5686
    -5.1443  -3.7840  -2.7684   0.2321   2.6827   7.7596   7.7762   8.0754

          k = 0.0833 0.5292 0.0000 (   808 PWs)   bands (ev):

   -39.5093 -37.1137 -31.0992 -15.1309 -14.5763 -13.4910  -9.8535  -7.0829
    -4.5434  -3.4093  -2.1431  -1.7058   0.3375   6.4524   9.2971  10.0217

          k = 0.1667 0.2887 0.0000 (   809 PWs)   bands (ev):

   -39.1222 -36.3316 -32.1154 -16.5573 -16.1999 -14.0483 -10.3921  -9.2287
    -6.0361  -5.7867  -1.8924   3.3391   5.5554   5.7375   5.8551   7.3330

          k = 0.1667 0.3849 0.0000 (   802 PWs)   bands (ev):

   -39.6165 -36.1265 -32.1456 -15.7775 -13.8072 -11.4952 -10.7870 -10.0069
    -5.3595  -4.4948  -2.1038   0.9599   3.3319   7.3082   7.3712   7.9762

          k = 0.1667 0.4811 0.0000 (   790 PWs)   bands (ev):

   -39.7710 -35.8179 -31.8889 -14.7942 -12.5365 -11.7508 -10.5220  -7.9801
    -4.4009  -2.4977  -2.4580  -1.3000   1.4903   5.7393   9.2300   9.3211

          k = 0.1667 0.5774 0.0000 (   796 PWs)   bands (ev):

   -39.9229 -35.8955 -31.8628 -13.8131 -13.7580 -11.2272 -10.6982  -6.3360
    -4.0849  -3.3082  -2.8428  -0.6515  -0.4376   4.6466  10.3013  11.0724

          k = 0.2500 0.4330 0.0000 (   799 PWs)   bands (ev):

   -40.0843 -35.5118 -32.5984 -14.8724 -12.0748 -11.4123 -11.1138  -8.6265
    -4.3199  -2.7647  -2.6130  -1.1165   1.8419   4.9906   9.0569   9.0739

          k = 0.2500 0.5292 0.0000 (   796 PWs)   bands (ev):

   -40.0734 -34.8959 -32.6996 -13.9700 -12.9088 -11.6744 -10.3850  -6.3704
    -4.1100  -3.1046  -2.9856  -1.1524   0.6093   3.0183  10.3517  10.7795

          k = 0.3333 0.5774 0.0000 (   783 PWs)   bands (ev):

   -39.8156 -33.5272 -33.5272 -13.0859 -13.0859 -12.3259  -9.7705  -4.6870
    -4.6870  -3.4692  -3.4692   0.0357   1.1585   1.1585  10.1338  11.7173

     the Fermi energy is     1.7790 ev

!    total energy              =     -22.33654274 Ry
     estimated scf accuracy    <          9.6E-10 Ry
     smearing contrib. (-TS)   =       0.00007478 Ry
     internal energy E=F+TS    =     -22.33661752 Ry

     The total energy is F=E-TS. E is the sum of the following terms:
     one-electron contribution =   -1350.51969587 Ry
     hartree contribution      =     681.32419121 Ry
     xc contribution           =     -33.91775565 Ry
     ewald contribution        =     680.77664279 Ry

     convergence has been achieved in  19 iterations

     negative rho (up, down):  2.776E-01 0.000E+00

     Forces acting on atoms (cartesian axes, Ry/au):

     atom    1 type  1   force =     0.00000000   -0.00000000  -29.12227942
     atom    2 type  1   force =    -0.00000000   -0.00000000  -29.12227942
     atom    3 type  1   force =     0.00000000    0.00000000   -0.00653951
     atom    4 type  1   force =     0.00000000    0.00000000   -0.00653951
     atom    5 type  1   force =     0.00000000    0.00000000   29.12881894
     atom    6 type  1   force =     0.00000000    0.00000000   29.12881894

     Total force =    58.251099     Total SCF correction =     0.000140


     Computing stress (Cartesian axis) and pressure


     negative rho (up, down):  2.776E-01 0.000E+00
          total   stress  (Ry/bohr**3)                   (kbar)     P=     5973.30
  -0.02448452   0.00000000  -0.00000000        -3601.80        0.00       -0.00
   0.00000000  -0.02448452   0.00000000            0.00    -3601.80        0.00
   0.00000000   0.00000000   0.17078610            0.00        0.00    25123.50


     Writing all to output data dir /run/media/rfa/SATA/Skripsi/DFT/dft-graphene/tmp/gr-aa-3L.save/ :
     XML data file, charge density, pseudopotentials, collected wavefunctions

     init_run     :      0.13s CPU      0.15s WALL (       1 calls)
     electrons    :      4.00s CPU      2.30s WALL (       1 calls)
     forces       :      0.02s CPU      0.01s WALL (       1 calls)
     stress       :      0.06s CPU      0.03s WALL (       1 calls)

     Called by init_run:
     wfcinit      :      0.08s CPU      0.06s WALL (       1 calls)
     potinit      :      0.00s CPU      0.00s WALL (       1 calls)
     hinit0       :      0.05s CPU      0.07s WALL (       1 calls)

     Called by electrons:
     c_bands      :      3.50s CPU      2.01s WALL (      19 calls)
     sum_band     :      0.39s CPU      0.23s WALL (      19 calls)
     v_of_rho     :      0.04s CPU      0.03s WALL (      20 calls)
     newd         :      0.03s CPU      0.02s WALL (      20 calls)
     mix_rho      :      0.02s CPU      0.01s WALL (      19 calls)

     Called by c_bands:
     init_us_2    :      0.07s CPU      0.04s WALL (     779 calls)
     cegterg      :      3.32s CPU      1.87s WALL (     361 calls)

     Called by *egterg:
     cdiaghg      :      0.94s CPU      0.50s WALL (    1916 calls)
     h_psi        :      1.92s CPU      1.14s WALL (    1935 calls)
     s_psi        :      0.09s CPU      0.04s WALL (    1935 calls)
     g_psi        :      0.02s CPU      0.01s WALL (    1555 calls)

     Called by h_psi:
     h_psi:calbec :      0.20s CPU      0.14s WALL (    1935 calls)
     vloc_psi     :      1.58s CPU      0.92s WALL (    1935 calls)
     add_vuspsi   :      0.11s CPU      0.05s WALL (    1935 calls)

     General routines
     calbec       :      0.28s CPU      0.18s WALL (    2619 calls)
     fft          :      0.05s CPU      0.07s WALL (     245 calls)
     ffts         :      0.00s CPU      0.00s WALL (      19 calls)
     fftw         :      1.50s CPU      0.88s WALL (   39296 calls)

     Parallel routines

     PWSCF        :      4.27s CPU      2.65s WALL


   This run was terminated on:   1:51:48  18Apr2025            

=------------------------------------------------------------------------------=
   JOB DONE.
=------------------------------------------------------------------------------=
