
     Program PWSCF v.7.4.1 starts on 16Apr2025 at 14:36:58 

     This program is part of the open-source Quantum ESPRESSO suite
     for quantum simulation of materials; please cite
         "P. Giannozzi et al., J. Phys.:Condens. Matter 21 395502 (2009);
         "P. Giannozzi et al., J. Phys.:Condens. Matter 29 465901 (2017);
         "P. Giannozzi et al., J. Chem. Phys. 152 154105 (2020);
          URL http://www.quantum-espresso.org", 
     in publications or presentations arising from this work. More details at
     http://www.quantum-espresso.org/quote

     Parallel version (MPI), running on     7 processors

     MPI processes distributed on     1 nodes
     13607 MiB available memory on the printing compute node when the environment starts

     Waiting for input...
     Reading input from standard input

     Current dimensions of program PWSCF are:
     Max number of different atomic species (ntypx) = 10
     Max number of k-points (npk) =  40000
     Max angular momentum in pseudopotentials (lmaxx) =  4

     R & G space division:  proc/nbgrp/npool/nimage =       7
     Subspace diagonalization in iterative solution of the eigenvalue problem:
     a serial algorithm will be used


     Parallelization info
     --------------------
     sticks:   dense  smooth     PW     G-vecs:    dense   smooth      PW
     Min          62      62     19                 6632     6632    1108
     Max          63      63     21                 6655     6655    1119
     Sum         439     439    139                46531    46531    7785

     Using Slab Decomposition



     bravais-lattice index     =            4
     lattice parameter (alat)  =       4.6561  a.u.
     unit-cell volume          =     532.1899 (a.u.)^3
     number of atoms/cell      =            6
     number of atomic types    =            1
     number of electrons       =        24.00
     number of Kohn-Sham states=           16
     kinetic-energy cutoff     =      75.0000  Ry
     charge density cutoff     =     300.0000  Ry
     scf convergence threshold =      1.0E-08
     mixing beta               =       0.7000
     number of iterations used =            8  plain     mixing
     Exchange-correlation= PBE
                           (   1   4   3   4   0   0   0)

     celldm(1)=   4.656107  celldm(2)=   0.000000  celldm(3)=   6.087896
     celldm(4)=   0.000000  celldm(5)=   0.000000  celldm(6)=   0.000000

     crystal axes: (cart. coord. in units of alat)
               a(1) = (   1.000000   0.000000   0.000000 )  
               a(2) = (  -0.500000   0.866025   0.000000 )  
               a(3) = (   0.000000   0.000000   6.087896 )  

     reciprocal axes: (cart. coord. in units 2 pi/alat)
               b(1) = (  1.000000  0.577350 -0.000000 )  
               b(2) = (  0.000000  1.154701  0.000000 )  
               b(3) = (  0.000000 -0.000000  0.164260 )  


     PseudoPot. # 1 for C  read from file:
     /home/rfa/Skripsi/DFT/dft-graphene/pseudo/C.pbe-n-rrkjus_psl.0.1.UPF
     MD5 check sum: 96a6a315177d77e6c95bf6fd3870f9e3
     Pseudo is Ultrasoft + core correction, Zval =  4.0
     Generated using &quot;atomic&quot; code by A. Dal Corso  v.6.3MaX
     Using radial grid of 1073 points,  4 beta functions with: 
                l(1) =   0
                l(2) =   0
                l(3) =   1
                l(4) =   1
     Q(r) pseudized with 0 coefficients 


     atomic species   valence    mass     pseudopotential
     C                 4.00    12.01070     C ( 1.00)

     12 Sym. Ops. (no inversion) found



   Cartesian axes

     site n.     atom                  positions (alat units)
         1        C      tau(   1) = (   0.0000000   0.5773503   3.0439478  )
         2        C      tau(   2) = (   0.5000000   0.2886751   3.0439478  )
         3        C      tau(   3) = (   0.0000000   0.5773503   3.2468777  )
         4        C      tau(   4) = (   0.5000000   0.2886751   3.2468777  )
         5        C      tau(   5) = (   0.0000000   0.5773503   3.4498075  )
         6        C      tau(   6) = (   0.5000000   0.2886751   3.4498075  )

     number of k points=    19  Marzari-Vanderbilt smearing, width (Ry)=  0.0200
                       cart. coord. in units 2pi/alat
        k(    1) = (   0.0000000   0.0000000   0.0000000), wk =   0.0138889
        k(    2) = (   0.0000000   0.0962250   0.0000000), wk =   0.0833333
        k(    3) = (   0.0000000   0.1924501   0.0000000), wk =   0.0833333
        k(    4) = (   0.0000000   0.2886751   0.0000000), wk =   0.0833333
        k(    5) = (   0.0000000   0.3849002   0.0000000), wk =   0.0833333
        k(    6) = (   0.0000000   0.4811252   0.0000000), wk =   0.0833333
        k(    7) = (   0.0000000  -0.5773503   0.0000000), wk =   0.0416667
        k(    8) = (   0.0833333   0.1443376   0.0000000), wk =   0.0833333
        k(    9) = (   0.0833333   0.2405626   0.0000000), wk =   0.1666667
        k(   10) = (   0.0833333   0.3367877   0.0000000), wk =   0.1666667
        k(   11) = (   0.0833333   0.4330127   0.0000000), wk =   0.1666667
        k(   12) = (   0.0833333   0.5292377   0.0000000), wk =   0.1666667
        k(   13) = (   0.1666667   0.2886751   0.0000000), wk =   0.0833333
        k(   14) = (   0.1666667   0.3849002   0.0000000), wk =   0.1666667
        k(   15) = (   0.1666667   0.4811252   0.0000000), wk =   0.1666667
        k(   16) = (   0.1666667   0.5773503   0.0000000), wk =   0.0833333
        k(   17) = (   0.2500000   0.4330127   0.0000000), wk =   0.0833333
        k(   18) = (   0.2500000   0.5292377   0.0000000), wk =   0.1666667
        k(   19) = (   0.3333333   0.5773503   0.0000000), wk =   0.0277778

     Dense  grid:    46531 G-vectors     FFT dimensions: (  25,  25, 160)

     Estimated max dynamical RAM per process >      14.88 MB

     Estimated total dynamical RAM >     104.13 MB

     Check: negative core charge=   -0.000003

     Initial potential from superposition of free atoms

     starting charge      23.9998, renormalised to      24.0000

     negative rho (up, down):  7.516E-05 0.000E+00
     Starting wfcs are   24 randomized atomic wfcs

     total cpu time spent up to now is        0.9 secs

     per-process dynamical memory:    15.3 Mb

     Self-consistent Calculation

     iteration #  1     ecut=    75.00 Ry     beta= 0.70
     Davidson diagonalization with overlap
     ethr =  1.00E-02,  avg # of iterations = 10.9

     negative rho (up, down):  5.467E-04 0.000E+00

     total cpu time spent up to now is        2.7 secs

     total energy              =     -23.92557138 Ry
     estimated scf accuracy    <      24.90562539 Ry

     iteration #  2     ecut=    75.00 Ry     beta= 0.70
     Davidson diagonalization with overlap
     c_bands:  1 eigenvalues not converged
     c_bands:  2 eigenvalues not converged
     c_bands:  2 eigenvalues not converged
     ethr =  1.00E-02,  avg # of iterations = 15.1

     total cpu time spent up to now is        4.7 secs

     total energy              =     -18.74461045 Ry
     estimated scf accuracy    <      31.71236995 Ry

     iteration #  3     ecut=    75.00 Ry     beta= 0.70
     Davidson diagonalization with overlap
     c_bands:  2 eigenvalues not converged
     ethr =  1.00E-02,  avg # of iterations = 11.7

     total cpu time spent up to now is        6.3 secs

     total energy              =     -31.92310679 Ry
     estimated scf accuracy    <       2.62284159 Ry

     iteration #  4     ecut=    75.00 Ry     beta= 0.70
     Davidson diagonalization with overlap
     ethr =  1.00E-02,  avg # of iterations =  1.8

     total cpu time spent up to now is        6.9 secs

     total energy              =     -31.59940241 Ry
     estimated scf accuracy    <       1.24458833 Ry

     iteration #  5     ecut=    75.00 Ry     beta= 0.70
     Davidson diagonalization with overlap
     ethr =  5.19E-03,  avg # of iterations =  1.7

     total cpu time spent up to now is        7.4 secs

     total energy              =     -31.31442234 Ry
     estimated scf accuracy    <       0.67696534 Ry

     iteration #  6     ecut=    75.00 Ry     beta= 0.70
     Davidson diagonalization with overlap
     ethr =  2.82E-03,  avg # of iterations =  4.7

     total cpu time spent up to now is        8.2 secs

     total energy              =     -31.38290370 Ry
     estimated scf accuracy    <       0.15072834 Ry

     iteration #  7     ecut=    75.00 Ry     beta= 0.70
     Davidson diagonalization with overlap
     ethr =  6.28E-04,  avg # of iterations =  5.0

     total cpu time spent up to now is        9.1 secs

     total energy              =     -31.35583312 Ry
     estimated scf accuracy    <       0.10410227 Ry

     iteration #  8     ecut=    75.00 Ry     beta= 0.70
     Davidson diagonalization with overlap
     c_bands:  1 eigenvalues not converged
     c_bands:  2 eigenvalues not converged
     c_bands:  1 eigenvalues not converged
     ethr =  4.34E-04,  avg # of iterations = 12.6

     total cpu time spent up to now is       10.5 secs

     total energy              =     -31.41608633 Ry
     estimated scf accuracy    <       0.08357008 Ry

     iteration #  9     ecut=    75.00 Ry     beta= 0.70
     Davidson diagonalization with overlap
     ethr =  3.48E-04,  avg # of iterations =  2.1

     total cpu time spent up to now is       11.1 secs

     total energy              =     -31.42343472 Ry
     estimated scf accuracy    <       0.08905196 Ry

     iteration # 10     ecut=    75.00 Ry     beta= 0.70
     Davidson diagonalization with overlap
     ethr =  3.48E-04,  avg # of iterations =  1.0

     total cpu time spent up to now is       11.7 secs

     total energy              =     -31.73221508 Ry
     estimated scf accuracy    <       0.09374638 Ry

     iteration # 11     ecut=    75.00 Ry     beta= 0.70
     Davidson diagonalization with overlap
     c_bands:  3 eigenvalues not converged
     c_bands:  2 eigenvalues not converged
     c_bands:  2 eigenvalues not converged
     c_bands:  2 eigenvalues not converged
     c_bands:  2 eigenvalues not converged
     c_bands:  1 eigenvalues not converged
     ethr =  3.48E-04,  avg # of iterations = 15.8

     total cpu time spent up to now is       13.7 secs

     total energy              =     -31.70954917 Ry
     estimated scf accuracy    <       9.04524293 Ry

     iteration # 12     ecut=    75.00 Ry     beta= 0.70
     Davidson diagonalization with overlap
     ethr =  3.48E-04,  avg # of iterations =  4.0

     total cpu time spent up to now is       14.3 secs

     total energy              =     -31.81471684 Ry
     estimated scf accuracy    <       2.88080701 Ry

     iteration # 13     ecut=    75.00 Ry     beta= 0.70
     Davidson diagonalization with overlap
     ethr =  3.48E-04,  avg # of iterations =  1.3

     total cpu time spent up to now is       14.9 secs

     total energy              =     -31.73820054 Ry
     estimated scf accuracy    <       2.67606707 Ry

     iteration # 14     ecut=    75.00 Ry     beta= 0.70
     Davidson diagonalization with overlap
     ethr =  3.48E-04,  avg # of iterations =  9.3

     total cpu time spent up to now is       15.9 secs

     total energy              =     -31.31157342 Ry
     estimated scf accuracy    <       1.96891408 Ry

     iteration # 15     ecut=    75.00 Ry     beta= 0.70
     Davidson diagonalization with overlap
     ethr =  3.48E-04,  avg # of iterations =  8.9

     negative rho (up, down):  1.205E-02 0.000E+00

     total cpu time spent up to now is       17.0 secs

     total energy              =     -31.36998355 Ry
     estimated scf accuracy    <       0.28691223 Ry

     iteration # 16     ecut=    75.00 Ry     beta= 0.70
     Davidson diagonalization with overlap
     ethr =  3.48E-04,  avg # of iterations =  6.3

     negative rho (up, down):  1.425E-02 0.000E+00

     total cpu time spent up to now is       18.0 secs

     total energy              =     -31.40117935 Ry
     estimated scf accuracy    <       0.05428739 Ry

     iteration # 17     ecut=    75.00 Ry     beta= 0.70
     Davidson diagonalization with overlap
     ethr =  2.26E-04,  avg # of iterations =  2.7

     negative rho (up, down):  6.712E-03 0.000E+00

     total cpu time spent up to now is       18.6 secs

     total energy              =     -31.38174557 Ry
     estimated scf accuracy    <       0.06646014 Ry

     iteration # 18     ecut=    75.00 Ry     beta= 0.70
     Davidson diagonalization with overlap
     ethr =  2.26E-04,  avg # of iterations =  5.4

     negative rho (up, down):  2.731E-02 0.000E+00

     total cpu time spent up to now is       19.5 secs

     total energy              =     -31.38989892 Ry
     estimated scf accuracy    <       0.01318333 Ry

     iteration # 19     ecut=    75.00 Ry     beta= 0.70
     Davidson diagonalization with overlap
     c_bands:  1 eigenvalues not converged
     c_bands:  1 eigenvalues not converged
     c_bands:  1 eigenvalues not converged
     c_bands:  2 eigenvalues not converged
     c_bands:  1 eigenvalues not converged
     ethr =  5.49E-05,  avg # of iterations = 13.2

     negative rho (up, down):  3.616E-02 0.000E+00

     total cpu time spent up to now is       20.9 secs

     total energy              =     -31.39322251 Ry
     estimated scf accuracy    <       0.00516197 Ry

     iteration # 20     ecut=    75.00 Ry     beta= 0.70
     Davidson diagonalization with overlap
     c_bands:  1 eigenvalues not converged
     c_bands:  1 eigenvalues not converged
     ethr =  2.15E-05,  avg # of iterations = 10.2

     negative rho (up, down):  5.127E-04 0.000E+00

     total cpu time spent up to now is       22.1 secs

     total energy              =     -31.39804352 Ry
     estimated scf accuracy    <       0.00237663 Ry

     iteration # 21     ecut=    75.00 Ry     beta= 0.70
     Davidson diagonalization with overlap
     c_bands:  2 eigenvalues not converged
     c_bands:  1 eigenvalues not converged
     c_bands:  1 eigenvalues not converged
     c_bands:  2 eigenvalues not converged
     c_bands:  1 eigenvalues not converged
     c_bands:  1 eigenvalues not converged
     c_bands:  1 eigenvalues not converged
     c_bands:  2 eigenvalues not converged
     c_bands:  1 eigenvalues not converged
     c_bands:  1 eigenvalues not converged
     c_bands:  1 eigenvalues not converged
     c_bands:  2 eigenvalues not converged
     c_bands:  1 eigenvalues not converged
     ethr =  9.90E-06,  avg # of iterations = 17.8

     negative rho (up, down):  8.462E-08 0.000E+00

     total cpu time spent up to now is       24.2 secs

     total energy              =     -31.39693958 Ry
     estimated scf accuracy    <       0.01471994 Ry

     iteration # 22     ecut=    75.00 Ry     beta= 0.70
     Davidson diagonalization with overlap
     c_bands:  1 eigenvalues not converged
     ethr =  9.90E-06,  avg # of iterations =  9.4

     negative rho (up, down):  2.581E-03 0.000E+00

     total cpu time spent up to now is       25.3 secs

     total energy              =     -31.39463227 Ry
     estimated scf accuracy    <       0.00487790 Ry

     iteration # 23     ecut=    75.00 Ry     beta= 0.70
     Davidson diagonalization with overlap
     c_bands:  1 eigenvalues not converged
     c_bands:  1 eigenvalues not converged
     c_bands:  1 eigenvalues not converged
     c_bands:  1 eigenvalues not converged
     ethr =  9.90E-06,  avg # of iterations = 14.7

     negative rho (up, down):  9.564E-04 0.000E+00

     total cpu time spent up to now is       26.9 secs

     total energy              =     -31.39617979 Ry
     estimated scf accuracy    <       0.00040308 Ry

     iteration # 24     ecut=    75.00 Ry     beta= 0.70
     Davidson diagonalization with overlap
     c_bands:  1 eigenvalues not converged
     c_bands:  1 eigenvalues not converged
     ethr =  1.68E-06,  avg # of iterations = 10.5

     negative rho (up, down):  8.736E-04 0.000E+00

     total cpu time spent up to now is       28.1 secs

     total energy              =     -31.39615917 Ry
     estimated scf accuracy    <       0.00053629 Ry

     iteration # 25     ecut=    75.00 Ry     beta= 0.70
     Davidson diagonalization with overlap
     c_bands:  1 eigenvalues not converged
     ethr =  1.68E-06,  avg # of iterations =  5.5

     negative rho (up, down):  8.670E-04 0.000E+00

     total cpu time spent up to now is       28.8 secs

     total energy              =     -31.39617753 Ry
     estimated scf accuracy    <       0.00008392 Ry

     iteration # 26     ecut=    75.00 Ry     beta= 0.70
     Davidson diagonalization with overlap
     c_bands:  1 eigenvalues not converged
     ethr =  3.50E-07,  avg # of iterations =  6.1

     negative rho (up, down):  8.676E-04 0.000E+00

     total cpu time spent up to now is       29.8 secs

     total energy              =     -31.39621584 Ry
     estimated scf accuracy    <       0.00000626 Ry

     iteration # 27     ecut=    75.00 Ry     beta= 0.70
     Davidson diagonalization with overlap
     ethr =  2.61E-08,  avg # of iterations =  8.0

     negative rho (up, down):  8.446E-04 0.000E+00

     total cpu time spent up to now is       31.0 secs

     total energy              =     -31.39622335 Ry
     estimated scf accuracy    <       0.00000456 Ry

     iteration # 28     ecut=    75.00 Ry     beta= 0.70
     Davidson diagonalization with overlap
     ethr =  1.90E-08,  avg # of iterations =  2.9

     negative rho (up, down):  8.550E-04 0.000E+00

     total cpu time spent up to now is       31.7 secs

     total energy              =     -31.39622451 Ry
     estimated scf accuracy    <       0.00000057 Ry

     iteration # 29     ecut=    75.00 Ry     beta= 0.70
     Davidson diagonalization with overlap
     ethr =  2.37E-09,  avg # of iterations =  7.5

     negative rho (up, down):  8.567E-04 0.000E+00

     total cpu time spent up to now is       32.9 secs

     total energy              =     -31.39622533 Ry
     estimated scf accuracy    <       0.00000192 Ry

     iteration # 30     ecut=    75.00 Ry     beta= 0.70
     Davidson diagonalization with overlap
     ethr =  2.37E-09,  avg # of iterations =  1.6

     negative rho (up, down):  8.598E-04 0.000E+00

     total cpu time spent up to now is       33.5 secs

     total energy              =     -31.39622533 Ry
     estimated scf accuracy    <       0.00000183 Ry

     iteration # 31     ecut=    75.00 Ry     beta= 0.70
     Davidson diagonalization with overlap
     ethr =  2.37E-09,  avg # of iterations =  1.8

     negative rho (up, down):  8.578E-04 0.000E+00

     total cpu time spent up to now is       34.1 secs

     total energy              =     -31.39622492 Ry
     estimated scf accuracy    <       0.00000181 Ry

     iteration # 32     ecut=    75.00 Ry     beta= 0.70
     Davidson diagonalization with overlap
     ethr =  2.37E-09,  avg # of iterations =  1.1

     negative rho (up, down):  8.574E-04 0.000E+00

     total cpu time spent up to now is       34.6 secs

     total energy              =     -31.39622473 Ry
     estimated scf accuracy    <       0.00000089 Ry

     iteration # 33     ecut=    75.00 Ry     beta= 0.70
     Davidson diagonalization with overlap
     ethr =  2.37E-09,  avg # of iterations =  2.3

     negative rho (up, down):  8.571E-04 0.000E+00

     total cpu time spent up to now is       35.2 secs

     total energy              =     -31.39622469 Ry
     estimated scf accuracy    <       0.00000032 Ry

     iteration # 34     ecut=    75.00 Ry     beta= 0.70
     Davidson diagonalization with overlap
     ethr =  1.35E-09,  avg # of iterations =  4.2

     negative rho (up, down):  8.568E-04 0.000E+00

     total cpu time spent up to now is       35.9 secs

     total energy              =     -31.39622474 Ry
     estimated scf accuracy    <       0.00000006 Ry

     iteration # 35     ecut=    75.00 Ry     beta= 0.70
     Davidson diagonalization with overlap
     ethr =  2.33E-10,  avg # of iterations =  6.8

     negative rho (up, down):  8.567E-04 0.000E+00

     total cpu time spent up to now is       37.0 secs

     End of self-consistent calculation

          k = 0.0000 0.0000 0.0000 (  5827 PWs)   bands (ev):

   -30.7629 -30.7629 -26.4445 -22.1955 -17.9462 -17.9462 -10.2696  -8.9813
    -4.5194  -3.6027  -3.6027   4.2980   5.3345   5.8223   6.5148   8.2635

          k = 0.0000 0.0962 0.0000 (  5879 PWs)   bands (ev):

   -30.9458 -30.8509 -26.7982 -22.0645 -17.5618 -17.0401 -10.1040  -9.4961
    -4.4335  -3.8611  -3.3512   3.9633   5.5600   6.0269   6.7379   8.2188

          k = 0.0000 0.1925 0.0000 (  5881 PWs)   bands (ev):

   -31.4061 -31.1834 -27.3637 -21.6752 -16.5303 -14.7815 -10.7386  -9.6110
    -4.4889  -4.2424  -2.8321   3.0172   6.2349   6.6353   7.4047   8.3258

          k = 0.0000 0.2887 0.0000 (  5891 PWs)   bands (ev):

   -31.9621 -31.7828 -27.5971 -21.0415 -15.1373 -12.2906 -11.7998  -8.7973
    -5.2150  -4.0467  -2.3163   1.6028   7.3482   7.5677   8.4902   8.5990

          k = 0.0000 0.3849 0.0000 (  5869 PWs)   bands (ev):

   -32.4557 -32.4330 -27.5266 -20.1975 -13.8977 -13.7279  -8.6182  -7.5405
    -5.8380  -3.9312  -1.8447  -0.0749   7.0082   7.9803   8.7000   9.3210

          k = 0.0000 0.4811 0.0000 (  5815 PWs)   bands (ev):

   -32.9005 -32.7861 -27.3767 -19.2499 -15.3407 -12.6650  -6.8511  -6.2464
    -4.6730  -3.9003  -1.6898  -1.4604   3.8367   7.3528   7.6693  11.0195

          k = 0.0000-0.5774 0.0000 (  5814 PWs)   bands (ev):

   -33.0672 -32.9016 -27.3083 -18.6830 -16.0786 -12.2658  -6.3877  -6.1675
    -3.8996  -2.5865  -2.3080  -1.3040   1.5727   6.8232   7.4945  12.5479

          k = 0.0833 0.1443 0.0000 (  5871 PWs)   bands (ev):

   -31.3632 -30.9538 -27.2513 -21.8043 -16.8286 -15.5005 -10.3535  -9.7747
    -4.6256  -3.9821  -2.9675   3.3273   6.0100   6.4337   7.1827   8.2828

          k = 0.0833 0.2406 0.0000 (  5868 PWs)   bands (ev):

   -32.0619 -31.1842 -27.6505 -21.2922 -15.5621 -12.9744 -11.6899  -9.1227
    -5.4097  -3.6950  -2.4522   2.1679   6.9040   7.2250   8.0609   8.5653

          k = 0.0833 0.3368 0.0000 (  5851 PWs)   bands (ev):

   -32.7903 -31.5493 -27.7451 -20.5496 -14.1018 -13.2092  -9.9318  -8.1342
    -6.2090  -3.3942  -1.9803   0.6504   7.9016   8.1005   8.3761   9.0314

          k = 0.0833 0.4330 0.0000 (  5827 PWs)   bands (ev):

   -33.3654 -31.9019 -27.6467 -19.6330 -14.7101 -12.8103  -7.4012  -6.8100
    -6.1500  -3.2052  -1.5725  -0.9995   5.2877   7.5008   8.0012  10.1130

          k = 0.0833 0.5292 0.0000 (  5816 PWs)   bands (ev):

   -33.6774 -32.1083 -27.5424 -18.7603 -15.8939 -12.0420  -7.1263  -6.2369
    -3.1329  -3.0876  -2.3229  -1.3043   2.2721   6.3396   7.6912  11.9397

          k = 0.1667 0.2887 0.0000 (  5853 PWs)   bands (ev):

   -32.9087 -31.1233 -27.9441 -20.6691 -14.1375 -12.9169 -10.5036  -8.3077
    -6.5479  -3.0453  -1.9672   0.9389   7.8530   8.1337   8.3860   9.1941

          k = 0.1667 0.3849 0.0000 (  5823 PWs)   bands (ev):

   -33.6353 -31.1397 -28.0938 -19.8387 -14.2486 -12.6639  -7.8894  -7.5144
    -6.9439  -2.4813  -1.5532  -0.5182   5.9558   7.5828   8.6931   9.6295

          k = 0.1667 0.4811 0.0000 (  5806 PWs)   bands (ev):

   -34.1115 -31.2064 -28.1097 -18.8951 -15.5226 -11.5490  -8.1374  -6.3719
    -4.1796  -2.1022  -1.9851  -1.2746   3.4681   5.3957   8.2936  10.7692

          k = 0.1667 0.5774 0.0000 (  5806 PWs)   bands (ev):

   -34.2762 -31.2416 -28.0970 -18.3027 -16.2309 -11.1305  -8.3501  -5.6456
    -2.8350  -2.0067  -1.9750  -1.1673   1.3641   4.7949   8.0975  11.2763

          k = 0.2500 0.4330 0.0000 (  5808 PWs)   bands (ev):

   -34.2600 -30.7183 -28.4977 -18.9551 -15.3309 -11.2707  -8.5592  -6.4423
    -4.6784  -1.8036  -1.7380  -1.1973   4.2474   4.7177   9.0957   9.6713

          k = 0.2500 0.5292 0.0000 (  5811 PWs)   bands (ev):

   -34.5881 -30.4148 -28.7939 -18.0472 -16.3300 -10.4051  -9.1261  -5.2681
    -3.0271  -2.0857  -1.2779  -1.0496   1.8067   3.3810   8.8549  10.2081

          k = 0.3333 0.5774 0.0000 (  5808 PWs)   bands (ev):

   -34.7512 -29.5887 -29.5887 -17.1711 -17.1711  -9.9290  -9.4904  -4.1222
    -4.1222  -0.9718  -0.9718  -0.0327  -0.0327   2.5343   9.5452   9.5453

     the Fermi energy is     2.1618 ev

!    total energy              =     -31.39622480 Ry
     estimated scf accuracy    <          9.9E-10 Ry
     smearing contrib. (-TS)   =      -0.00023494 Ry
     internal energy E=F+TS    =     -31.39598987 Ry

     The total energy is F=E-TS. E is the sum of the following terms:
     one-electron contribution =   -1369.68673783 Ry
     hartree contribution      =     692.90985778 Ry
     xc contribution           =     -35.39575267 Ry
     ewald contribution        =     680.77664285 Ry

     convergence has been achieved in  35 iterations

     negative rho (up, down):  8.567E-04 0.000E+00

     Forces acting on atoms (cartesian axes, Ry/au):

     atom    1 type  1   force =     0.00000000    0.00000000  -21.48192628
     atom    2 type  1   force =     0.00000000    0.00000000  -21.48192628
     atom    3 type  1   force =    -0.00000000    0.00000000   -0.00236890
     atom    4 type  1   force =    -0.00000000   -0.00000000   -0.00236890
     atom    5 type  1   force =     0.00000000   -0.00000000   21.48429518
     atom    6 type  1   force =     0.00000000    0.00000000   21.48429518

     Total force =    42.966222     Total SCF correction =     0.000104


     Computing stress (Cartesian axis) and pressure


     negative rho (up, down):  8.567E-04 0.000E+00
          total   stress  (Ry/bohr**3)                   (kbar)     P=     8705.06
   0.01249624  -0.00000000   0.00000000         1838.26       -0.00        0.00
  -0.00000000   0.01249624  -0.00000000           -0.00     1838.26       -0.00
   0.00000000  -0.00000000   0.15253495            0.00       -0.00    22438.67


     Writing all to output data dir /home/rfa/Skripsi/DFT/dft-graphene/tmp/gr-aa-3L.save/ :
     XML data file, charge density, pseudopotentials, collected wavefunctions

     init_run     :      0.72s CPU      0.80s WALL (       1 calls)
     electrons    :     65.84s CPU     36.19s WALL (       1 calls)
     forces       :      0.22s CPU      0.12s WALL (       1 calls)
     stress       :      0.73s CPU      0.42s WALL (       1 calls)

     Called by init_run:
     wfcinit      :      0.44s CPU      0.30s WALL (       1 calls)
     potinit      :      0.02s CPU      0.02s WALL (       1 calls)
     hinit0       :      0.22s CPU      0.43s WALL (       1 calls)

     Called by electrons:
     c_bands      :     58.28s CPU     31.73s WALL (      35 calls)
     sum_band     :      6.48s CPU      3.51s WALL (      35 calls)
     v_of_rho     :      0.32s CPU      0.35s WALL (      36 calls)
     newd         :      0.38s CPU      0.34s WALL (      36 calls)
     mix_rho      :      0.33s CPU      0.22s WALL (      35 calls)

     Called by c_bands:
     init_us_2    :      1.66s CPU      0.87s WALL (    1387 calls)
     cegterg      :     55.90s CPU     30.43s WALL (     665 calls)

     Called by *egterg:
     cdiaghg      :      3.95s CPU      2.04s WALL (    5300 calls)
     h_psi        :     36.92s CPU     20.57s WALL (    5319 calls)
     s_psi        :      2.72s CPU      1.45s WALL (    5319 calls)
     g_psi        :      0.36s CPU      0.20s WALL (    4635 calls)

     Called by h_psi:
     h_psi:calbec :      6.34s CPU      3.57s WALL (    5319 calls)
     vloc_psi     :     26.09s CPU     14.59s WALL (    5319 calls)
     add_vuspsi   :      3.83s CPU      2.05s WALL (    5319 calls)

     General routines
     calbec       :      7.50s CPU      4.18s WALL (    6307 calls)
     fft          :      0.33s CPU      0.54s WALL (     421 calls)
     ffts         :      0.02s CPU      0.01s WALL (      35 calls)
     fftw         :     24.04s CPU     13.56s WALL (   87846 calls)

     Parallel routines

     PWSCF        :   1m 7.63s CPU     38.02s WALL


   This run was terminated on:  14:37:36  16Apr2025            

=------------------------------------------------------------------------------=
   JOB DONE.
=------------------------------------------------------------------------------=
