
     Program PWSCF v.7.4.1 starts on 16Apr2025 at 14:34: 3 

     This program is part of the open-source Quantum ESPRESSO suite
     for quantum simulation of materials; please cite
         "P. Giannozzi et al., J. Phys.:Condens. Matter 21 395502 (2009);
         "P. Giannozzi et al., J. Phys.:Condens. Matter 29 465901 (2017);
         "P. Giannozzi et al., J. Chem. Phys. 152 154105 (2020);
          URL http://www.quantum-espresso.org", 
     in publications or presentations arising from this work. More details at
     http://www.quantum-espresso.org/quote

     Parallel version (MPI), running on     7 processors

     MPI processes distributed on     1 nodes
     13713 MiB available memory on the printing compute node when the environment starts

     Waiting for input...
     Reading input from standard input

     Current dimensions of program PWSCF are:
     Max number of different atomic species (ntypx) = 10
     Max number of k-points (npk) =  40000
     Max angular momentum in pseudopotentials (lmaxx) =  4

     R & G space division:  proc/nbgrp/npool/nimage =       7
     Subspace diagonalization in iterative solution of the eigenvalue problem:
     a serial algorithm will be used


     Parallelization info
     --------------------
     sticks:   dense  smooth     PW     G-vecs:    dense   smooth      PW
     Min          26      26      8                 1676     1676     330
     Max          27      27     10                 1681     1681     342
     Sum         187     187     61                11745    11745    2349

     Using Slab Decomposition



     bravais-lattice index     =            4
     lattice parameter (alat)  =       4.6561  a.u.
     unit-cell volume          =     532.1899 (a.u.)^3
     number of atoms/cell      =            6
     number of atomic types    =            1
     number of electrons       =        24.00
     number of Kohn-Sham states=           16
     kinetic-energy cutoff     =      30.0000  Ry
     charge density cutoff     =     120.0000  Ry
     scf convergence threshold =      1.0E-08
     mixing beta               =       0.7000
     number of iterations used =            8  plain     mixing
     Exchange-correlation= PBE
                           (   1   4   3   4   0   0   0)

     celldm(1)=   4.656107  celldm(2)=   0.000000  celldm(3)=   6.087896
     celldm(4)=   0.000000  celldm(5)=   0.000000  celldm(6)=   0.000000

     crystal axes: (cart. coord. in units of alat)
               a(1) = (   1.000000   0.000000   0.000000 )  
               a(2) = (  -0.500000   0.866025   0.000000 )  
               a(3) = (   0.000000   0.000000   6.087896 )  

     reciprocal axes: (cart. coord. in units 2 pi/alat)
               b(1) = (  1.000000  0.577350 -0.000000 )  
               b(2) = (  0.000000  1.154701  0.000000 )  
               b(3) = (  0.000000 -0.000000  0.164260 )  


     PseudoPot. # 1 for C  read from file:
     /home/rfa/Skripsi/DFT/dft-graphene/pseudo/C.pbe-n-rrkjus_psl.0.1.UPF
     MD5 check sum: 96a6a315177d77e6c95bf6fd3870f9e3
     Pseudo is Ultrasoft + core correction, Zval =  4.0
     Generated using &quot;atomic&quot; code by A. Dal Corso  v.6.3MaX
     Using radial grid of 1073 points,  4 beta functions with: 
                l(1) =   0
                l(2) =   0
                l(3) =   1
                l(4) =   1
     Q(r) pseudized with 0 coefficients 


     atomic species   valence    mass     pseudopotential
     C                 4.00    12.01070     C ( 1.00)

     12 Sym. Ops. (no inversion) found



   Cartesian axes

     site n.     atom                  positions (alat units)
         1        C      tau(   1) = (   0.0000000   0.5773503   3.0439478  )
         2        C      tau(   2) = (   0.5000000   0.2886751   3.0439478  )
         3        C      tau(   3) = (   0.0000000   0.5773503   3.2468777  )
         4        C      tau(   4) = (   0.5000000   0.2886751   3.2468777  )
         5        C      tau(   5) = (   0.0000000   0.5773503   3.4498075  )
         6        C      tau(   6) = (   0.5000000   0.2886751   3.4498075  )

     number of k points=    19  Marzari-Vanderbilt smearing, width (Ry)=  0.0200
                       cart. coord. in units 2pi/alat
        k(    1) = (   0.0000000   0.0000000   0.0000000), wk =   0.0138889
        k(    2) = (   0.0000000   0.0962250   0.0000000), wk =   0.0833333
        k(    3) = (   0.0000000   0.1924501   0.0000000), wk =   0.0833333
        k(    4) = (   0.0000000   0.2886751   0.0000000), wk =   0.0833333
        k(    5) = (   0.0000000   0.3849002   0.0000000), wk =   0.0833333
        k(    6) = (   0.0000000   0.4811252   0.0000000), wk =   0.0833333
        k(    7) = (   0.0000000  -0.5773503   0.0000000), wk =   0.0416667
        k(    8) = (   0.0833333   0.1443376   0.0000000), wk =   0.0833333
        k(    9) = (   0.0833333   0.2405626   0.0000000), wk =   0.1666667
        k(   10) = (   0.0833333   0.3367877   0.0000000), wk =   0.1666667
        k(   11) = (   0.0833333   0.4330127   0.0000000), wk =   0.1666667
        k(   12) = (   0.0833333   0.5292377   0.0000000), wk =   0.1666667
        k(   13) = (   0.1666667   0.2886751   0.0000000), wk =   0.0833333
        k(   14) = (   0.1666667   0.3849002   0.0000000), wk =   0.1666667
        k(   15) = (   0.1666667   0.4811252   0.0000000), wk =   0.1666667
        k(   16) = (   0.1666667   0.5773503   0.0000000), wk =   0.0833333
        k(   17) = (   0.2500000   0.4330127   0.0000000), wk =   0.0833333
        k(   18) = (   0.2500000   0.5292377   0.0000000), wk =   0.1666667
        k(   19) = (   0.3333333   0.5773503   0.0000000), wk =   0.0277778

     Dense  grid:    11745 G-vectors     FFT dimensions: (  18,  18, 100)

     Estimated max dynamical RAM per process >       4.00 MB

     Estimated total dynamical RAM >      27.99 MB

     Check: negative core charge=   -0.000019

     Initial potential from superposition of free atoms

     starting charge      23.9998, renormalised to      24.0000

     negative rho (up, down):  3.839E-03 0.000E+00
     Starting wfcs are   24 randomized atomic wfcs

     total cpu time spent up to now is        0.6 secs

     per-process dynamical memory:     9.4 Mb

     Self-consistent Calculation

     iteration #  1     ecut=    30.00 Ry     beta= 0.70
     Davidson diagonalization with overlap
     ethr =  1.00E-02,  avg # of iterations =  7.5

     negative rho (up, down):  7.134E-02 0.000E+00

     total cpu time spent up to now is        1.0 secs

     total energy              =     -21.96912462 Ry
     estimated scf accuracy    <      21.86780460 Ry

     iteration #  2     ecut=    30.00 Ry     beta= 0.70
     Davidson diagonalization with overlap
     ethr =  1.00E-02,  avg # of iterations = 13.7

     negative rho (up, down):  5.710E-05 0.000E+00

     total cpu time spent up to now is        1.8 secs

     total energy              =      -7.29859394 Ry
     estimated scf accuracy    <      63.55637056 Ry

     iteration #  3     ecut=    30.00 Ry     beta= 0.70
     Davidson diagonalization with overlap
     ethr =  1.00E-02,  avg # of iterations = 11.3

     negative rho (up, down):  1.558E-04 0.000E+00

     total cpu time spent up to now is        2.3 secs

     total energy              =     -29.76782916 Ry
     estimated scf accuracy    <       3.13768816 Ry

     iteration #  4     ecut=    30.00 Ry     beta= 0.70
     Davidson diagonalization with overlap
     ethr =  1.00E-02,  avg # of iterations =  1.4

     negative rho (up, down):  1.102E-03 0.000E+00

     total cpu time spent up to now is        2.5 secs

     total energy              =     -29.02301672 Ry
     estimated scf accuracy    <       1.86224175 Ry

     iteration #  5     ecut=    30.00 Ry     beta= 0.70
     Davidson diagonalization with overlap
     ethr =  7.76E-03,  avg # of iterations =  1.4

     negative rho (up, down):  1.244E-03 0.000E+00

     total cpu time spent up to now is        2.7 secs

     WARNING: integrated charge=    24.00010869, expected=    24.00000000

     total energy              =     -29.04836249 Ry
     estimated scf accuracy    <       0.78073452 Ry

     iteration #  6     ecut=    30.00 Ry     beta= 0.70
     Davidson diagonalization with overlap
     ethr =  3.25E-03,  avg # of iterations =  1.3

     negative rho (up, down):  1.206E-03 0.000E+00

     total cpu time spent up to now is        2.9 secs

     WARNING: integrated charge=    24.00006332, expected=    24.00000000

     total energy              =     -29.07130778 Ry
     estimated scf accuracy    <       0.73231892 Ry

     iteration #  7     ecut=    30.00 Ry     beta= 0.70
     Davidson diagonalization with overlap
     ethr =  3.05E-03,  avg # of iterations =  1.0

     negative rho (up, down):  1.436E-02 0.000E+00

     total cpu time spent up to now is        3.1 secs

     WARNING: integrated charge=    23.99755336, expected=    24.00000000

     total energy              =     -28.54527592 Ry
     estimated scf accuracy    <       0.73344167 Ry

     iteration #  8     ecut=    30.00 Ry     beta= 0.70
     Davidson diagonalization with overlap
     ethr =  3.05E-03,  avg # of iterations =  3.5

     negative rho (up, down):  4.692E-02 0.000E+00

     total cpu time spent up to now is        3.3 secs

     WARNING: integrated charge=    23.99642876, expected=    24.00000000

     total energy              =     -28.55733472 Ry
     estimated scf accuracy    <       0.08992020 Ry

     iteration #  9     ecut=    30.00 Ry     beta= 0.70
     Davidson diagonalization with overlap
     ethr =  3.75E-04,  avg # of iterations = 10.3

     negative rho (up, down):  6.141E-02 0.000E+00

     total cpu time spent up to now is        3.7 secs

     WARNING: integrated charge=    23.99596930, expected=    24.00000000

     total energy              =     -28.58428620 Ry
     estimated scf accuracy    <       0.06998637 Ry

     iteration # 10     ecut=    30.00 Ry     beta= 0.70
     Davidson diagonalization with overlap
     ethr =  2.92E-04,  avg # of iterations =  6.0

     negative rho (up, down):  5.319E-02 0.000E+00

     total cpu time spent up to now is        4.0 secs

     WARNING: integrated charge=    23.99783028, expected=    24.00000000

     total energy              =     -28.56820260 Ry
     estimated scf accuracy    <       0.06557842 Ry

     iteration # 11     ecut=    30.00 Ry     beta= 0.70
     Davidson diagonalization with overlap
     ethr =  2.73E-04,  avg # of iterations =  2.6

     negative rho (up, down):  7.784E-02 0.000E+00

     total cpu time spent up to now is        4.2 secs

     WARNING: integrated charge=    23.99868349, expected=    24.00000000

     total energy              =     -28.56497748 Ry
     estimated scf accuracy    <       0.02600584 Ry

     iteration # 12     ecut=    30.00 Ry     beta= 0.70
     Davidson diagonalization with overlap
     ethr =  1.08E-04,  avg # of iterations =  8.2

     negative rho (up, down):  7.784E-02 0.000E+00

     total cpu time spent up to now is        4.5 secs

     WARNING: integrated charge=    23.99918699, expected=    24.00000000

     total energy              =     -28.56415926 Ry
     estimated scf accuracy    <       0.01505556 Ry

     iteration # 13     ecut=    30.00 Ry     beta= 0.70
     Davidson diagonalization with overlap
     ethr =  6.27E-05,  avg # of iterations =  1.4

     negative rho (up, down):  7.684E-02 0.000E+00

     total cpu time spent up to now is        4.7 secs

     WARNING: integrated charge=    23.99872631, expected=    24.00000000

     total energy              =     -28.56531708 Ry
     estimated scf accuracy    <       0.01000274 Ry

     iteration # 14     ecut=    30.00 Ry     beta= 0.70
     Davidson diagonalization with overlap
     ethr =  4.17E-05,  avg # of iterations =  1.2

     negative rho (up, down):  7.875E-02 0.000E+00

     total cpu time spent up to now is        4.9 secs

     WARNING: integrated charge=    24.00169543, expected=    24.00000000

     total energy              =     -28.55808654 Ry
     estimated scf accuracy    <       0.01129310 Ry

     iteration # 15     ecut=    30.00 Ry     beta= 0.70
     Davidson diagonalization with overlap
     ethr =  4.17E-05,  avg # of iterations =  4.6

     negative rho (up, down):  8.034E-02 0.000E+00

     total cpu time spent up to now is        5.2 secs

     WARNING: integrated charge=    24.00008597, expected=    24.00000000

     total energy              =     -28.56019129 Ry
     estimated scf accuracy    <       0.00417474 Ry

     iteration # 16     ecut=    30.00 Ry     beta= 0.70
     Davidson diagonalization with overlap
     ethr =  1.74E-05,  avg # of iterations =  5.7

     negative rho (up, down):  7.925E-02 0.000E+00

     total cpu time spent up to now is        5.5 secs

     WARNING: integrated charge=    24.00005211, expected=    24.00000000

     total energy              =     -28.56151053 Ry
     estimated scf accuracy    <       0.00027106 Ry

     iteration # 17     ecut=    30.00 Ry     beta= 0.70
     Davidson diagonalization with overlap
     c_bands:  1 eigenvalues not converged
     ethr =  1.13E-06,  avg # of iterations =  7.8

     negative rho (up, down):  7.920E-02 0.000E+00

     total cpu time spent up to now is        5.9 secs

     WARNING: integrated charge=    24.00003770, expected=    24.00000000

     total energy              =     -28.56164606 Ry
     estimated scf accuracy    <       0.00001564 Ry

     iteration # 18     ecut=    30.00 Ry     beta= 0.70
     Davidson diagonalization with overlap
     ethr =  6.52E-08,  avg # of iterations =  5.3

     negative rho (up, down):  7.923E-02 0.000E+00

     total cpu time spent up to now is        6.2 secs

     WARNING: integrated charge=    24.00002257, expected=    24.00000000

     total energy              =     -28.56165690 Ry
     estimated scf accuracy    <       0.00000242 Ry

     iteration # 19     ecut=    30.00 Ry     beta= 0.70
     Davidson diagonalization with overlap
     ethr =  1.01E-08,  avg # of iterations =  4.4

     negative rho (up, down):  7.930E-02 0.000E+00

     total cpu time spent up to now is        6.5 secs

     WARNING: integrated charge=    24.00000751, expected=    24.00000000

     total energy              =     -28.56165822 Ry
     estimated scf accuracy    <       0.00000145 Ry

     iteration # 20     ecut=    30.00 Ry     beta= 0.70
     Davidson diagonalization with overlap
     ethr =  6.04E-09,  avg # of iterations =  2.6

     negative rho (up, down):  7.929E-02 0.000E+00

     total cpu time spent up to now is        6.8 secs

     WARNING: integrated charge=    23.99999677, expected=    24.00000000

     total energy              =     -28.56165777 Ry
     estimated scf accuracy    <       0.00000271 Ry

     iteration # 21     ecut=    30.00 Ry     beta= 0.70
     Davidson diagonalization with overlap
     ethr =  6.04E-09,  avg # of iterations =  2.0

     negative rho (up, down):  7.929E-02 0.000E+00

     total cpu time spent up to now is        7.0 secs

     WARNING: integrated charge=    23.99999484, expected=    24.00000000

     total energy              =     -28.56165770 Ry
     estimated scf accuracy    <       0.00000063 Ry

     iteration # 22     ecut=    30.00 Ry     beta= 0.70
     Davidson diagonalization with overlap
     ethr =  2.63E-09,  avg # of iterations =  3.3

     negative rho (up, down):  7.929E-02 0.000E+00

     total cpu time spent up to now is        7.2 secs

     End of self-consistent calculation

          k = 0.0000 0.0000 0.0000 (  1435 PWs)   bands (ev):

   -32.2805 -32.2805 -27.2847 -19.5774 -19.5774 -18.0413 -10.2727  -4.4577
    -4.2923  -4.2923  -1.1941   3.3315   3.8391   4.7916   4.8058   6.4476

          k = 0.0000 0.0962 0.0000 (  1419 PWs)   bands (ev):

   -32.4584 -32.3552 -27.7043 -19.1928 -18.5673 -17.9055 -10.1064  -4.9045
    -4.5463  -4.3513  -0.9066   3.5596   4.0590   4.4844   5.0302   6.6346

          k = 0.0000 0.1925 0.0000 (  1451 PWs)   bands (ev):

   -32.9377 -32.7117 -28.4027 -18.2048 -17.7105 -16.2525  -9.6308  -6.4220
    -5.1666  -4.1129  -0.8113   3.4450   4.2435   4.7191   5.7010   7.1996

          k = 0.0000 0.2887 0.0000 (  1473 PWs)   bands (ev):

   -33.4989 -33.2609 -28.7689 -17.0632 -16.8617 -13.1949  -8.8280  -8.2581
    -5.8899  -3.6428  -0.7651   1.9640   5.3814   5.8166   6.8101   8.1040

          k = 0.0000 0.3849 0.0000 (  1477 PWs)   bands (ev):

   -33.9873 -33.8609 -28.7869 -16.1013 -15.5149  -9.9864  -9.7959  -7.7116
    -6.5085  -2.9984  -0.8156   0.2083   6.2114   6.9641   7.3201   8.0837

          k = 0.0000 0.4811 0.0000 (  1483 PWs)   bands (ev):

   -34.3173 -34.3001 -28.6818 -14.9666 -14.5098 -11.7474  -6.9547  -6.9160
    -5.8530  -2.3397  -1.5982  -1.2773   3.0087   6.4981   8.8107   9.0527

          k = 0.0000-0.5774 0.0000 (  1488 PWs)   bands (ev):

   -34.4594 -34.4365 -28.6257 -14.1458 -13.8974 -12.6715  -7.0569  -6.0983
    -3.7303  -2.4667  -1.7120  -1.6478   0.8643   5.9988   9.0898  11.5208

          k = 0.0833 0.1443 0.0000 (  1444 PWs)   bands (ev):

   -32.8810 -32.5123 -28.2518 -18.4742 -17.7215 -16.9802  -9.7806  -5.8420
    -5.0899  -4.1499  -0.6482   3.8485   4.0154   4.4992   5.4777   7.0123

          k = 0.0833 0.2406 0.0000 (  1470 PWs)   bands (ev):

   -33.5604 -32.7234 -28.7731 -17.3494 -17.2734 -14.3887  -9.1620  -7.4588
    -5.8861  -3.7921  -0.7040   2.4846   4.9256   5.3793   6.3659   7.7657

          k = 0.0833 0.3368 0.0000 (  1485 PWs)   bands (ev):

   -34.2812 -33.0564 -28.9744 -16.5836 -15.8901 -11.2482  -9.2471  -8.1985
    -6.6359  -3.2519  -0.7817   0.9085   6.2797   6.6879   7.2022   7.7706

          k = 0.0833 0.4330 0.0000 (  1487 PWs)   bands (ev):

   -34.8353 -33.3809 -28.9426 -15.5169 -14.6611 -10.9553  -7.9839  -7.1820
    -6.8698  -2.5973  -1.0113  -0.8197   4.4664   6.6253   8.1436   8.3255

          k = 0.0833 0.5292 0.0000 (  1493 PWs)   bands (ev):

   -35.1373 -33.5766 -28.8656 -14.2633 -13.9414 -12.4358  -7.4760  -6.1894
    -4.3565  -2.2914  -1.9450  -1.4257   1.4737   5.4745   9.1326  10.4021

          k = 0.1667 0.2887 0.0000 (  1472 PWs)   bands (ev):

   -34.3841 -32.6504 -29.1462 -16.6498 -15.9285 -11.8264  -8.8098  -8.3004
    -6.9439  -3.2658  -0.7121   1.1861   6.0534   6.4768   7.2414   7.7322

          k = 0.1667 0.3849 0.0000 (  1483 PWs)   bands (ev):

   -35.1027 -32.6353 -29.3715 -15.7289 -14.5351 -10.0550  -8.8892  -7.8308
    -7.1897  -2.6469  -0.5864  -0.2497   5.1490   6.6680   7.6740   7.9827

          k = 0.1667 0.4811 0.0000 (  1489 PWs)   bands (ev):

   -35.5725 -32.6739 -29.4437 -14.5948 -13.4841 -11.5828  -8.3727  -6.4155
    -5.3319  -2.0014  -1.8398  -0.8978   2.6001   4.4936   9.5450   9.6967

          k = 0.1667 0.5774 0.0000 (  1496 PWs)   bands (ev):

   -35.7363 -32.6980 -29.4518 -13.8024 -13.0908 -12.6297  -8.5534  -5.5792
    -3.3557  -2.7545  -1.5701  -1.2376   0.5365   3.9192   9.7371  11.8364

          k = 0.2500 0.4330 0.0000 (  1494 PWs)   bands (ev):

   -35.7094 -32.1906 -29.8315 -14.7763 -13.2260 -11.0018  -8.9447  -6.5915
    -5.7482  -2.0364  -1.6307  -0.6323   3.4495   3.6896   9.4530   9.6171

          k = 0.2500 0.5292 0.0000 (  1491 PWs)   bands (ev):

   -36.0400 -31.8565 -30.1740 -13.7793 -12.4155 -12.1182  -9.5520  -5.2305
    -3.3468  -2.8769  -1.5108  -0.8929   0.8008   2.5522  10.5332  11.2930

          k = 0.3333 0.5774 0.0000 (  1482 PWs)   bands (ev):

   -36.1926 -30.9969 -30.9969 -12.7776 -12.7776 -11.9708 -10.0950  -4.0086
    -4.0086  -1.1935  -1.1935  -1.0945  -1.0945   1.7869  11.1029  11.1972

     the Fermi energy is     1.7723 ev

!    total energy              =     -28.56165784 Ry
     estimated scf accuracy    <          7.7E-09 Ry
     smearing contrib. (-TS)   =       0.00035086 Ry
     internal energy E=F+TS    =     -28.56200870 Ry

     The total energy is F=E-TS. E is the sum of the following terms:
     one-electron contribution =   -1364.47474890 Ry
     hartree contribution      =     690.21525591 Ry
     xc contribution           =     -35.07915859 Ry
     ewald contribution        =     680.77664287 Ry

     convergence has been achieved in  22 iterations

     negative rho (up, down):  7.929E-02 0.000E+00

     Forces acting on atoms (cartesian axes, Ry/au):

     atom    1 type  1   force =    -0.00000000   -0.00000000  -27.21554657
     atom    2 type  1   force =    -0.00000000    0.00000000  -27.21554657
     atom    3 type  1   force =    -0.00000000    0.00000000   -0.00070828
     atom    4 type  1   force =     0.00000000    0.00000000   -0.00070828
     atom    5 type  1   force =     0.00000000    0.00000000   27.21625485
     atom    6 type  1   force =    -0.00000000   -0.00000000   27.21625485

     Total force =    54.431801     Total SCF correction =     0.000023


     Computing stress (Cartesian axis) and pressure


     negative rho (up, down):  7.929E-02 0.000E+00
          total   stress  (Ry/bohr**3)                   (kbar)     P=     9011.56
   0.00693998   0.00000000   0.00000000         1020.91        0.00        0.00
   0.00000000   0.00693998  -0.00000000            0.00     1020.91       -0.00
   0.00000000  -0.00000000   0.16989810            0.00       -0.00    24992.87


     Writing all to output data dir /home/rfa/Skripsi/DFT/dft-graphene/tmp/gr-aa-3L.save/ :
     XML data file, charge density, pseudopotentials, collected wavefunctions

     init_run     :      0.36s CPU      0.48s WALL (       1 calls)
     electrons    :     12.26s CPU      6.67s WALL (       1 calls)
     forces       :      0.04s CPU      0.02s WALL (       1 calls)
     stress       :      0.11s CPU      0.07s WALL (       1 calls)

     Called by init_run:
     wfcinit      :      0.18s CPU      0.10s WALL (       1 calls)
     potinit      :      0.01s CPU      0.01s WALL (       1 calls)
     hinit0       :      0.17s CPU      0.37s WALL (       1 calls)

     Called by electrons:
     c_bands      :     10.66s CPU      5.79s WALL (      22 calls)
     sum_band     :      1.31s CPU      0.71s WALL (      22 calls)
     v_of_rho     :      0.12s CPU      0.07s WALL (      23 calls)
     newd         :      0.09s CPU      0.05s WALL (      23 calls)
     mix_rho      :      0.04s CPU      0.02s WALL (      22 calls)

     Called by c_bands:
     init_us_2    :      0.17s CPU      0.09s WALL (     893 calls)
     cegterg      :     10.23s CPU      5.53s WALL (     418 calls)

     Called by *egterg:
     cdiaghg      :      1.71s CPU      0.90s WALL (    2440 calls)
     h_psi        :      7.31s CPU      3.94s WALL (    2459 calls)
     s_psi        :      0.15s CPU      0.08s WALL (    2459 calls)
     g_psi        :      0.05s CPU      0.03s WALL (    2022 calls)

     Called by h_psi:
     h_psi:calbec :      0.67s CPU      0.37s WALL (    2459 calls)
     vloc_psi     :      6.25s CPU      3.36s WALL (    2459 calls)
     add_vuspsi   :      0.30s CPU      0.15s WALL (    2459 calls)

     General routines
     calbec       :      0.81s CPU      0.45s WALL (    3200 calls)
     fft          :      0.20s CPU      0.39s WALL (     278 calls)
     ffts         :      0.00s CPU      0.00s WALL (      22 calls)
     fftw         :      6.39s CPU      3.41s WALL (   49010 calls)

     Parallel routines

     PWSCF        :     12.86s CPU      7.46s WALL


   This run was terminated on:  14:34:11  16Apr2025            

=------------------------------------------------------------------------------=
   JOB DONE.
=------------------------------------------------------------------------------=
