
     Program PWSCF v.7.4.1 starts on 16Apr2025 at 14:34:26 

     This program is part of the open-source Quantum ESPRESSO suite
     for quantum simulation of materials; please cite
         "P. Giannozzi et al., J. Phys.:Condens. Matter 21 395502 (2009);
         "P. Giannozzi et al., J. Phys.:Condens. Matter 29 465901 (2017);
         "P. Giannozzi et al., J. Chem. Phys. 152 154105 (2020);
          URL http://www.quantum-espresso.org", 
     in publications or presentations arising from this work. More details at
     http://www.quantum-espresso.org/quote

     Parallel version (MPI), running on     7 processors

     MPI processes distributed on     1 nodes
     13807 MiB available memory on the printing compute node when the environment starts

     Waiting for input...
     Reading input from standard input

     Current dimensions of program PWSCF are:
     Max number of different atomic species (ntypx) = 10
     Max number of k-points (npk) =  40000
     Max angular momentum in pseudopotentials (lmaxx) =  4

     R & G space division:  proc/nbgrp/npool/nimage =       7
     Subspace diagonalization in iterative solution of the eigenvalue problem:
     a serial algorithm will be used


     Parallelization info
     --------------------
     sticks:   dense  smooth     PW     G-vecs:    dense   smooth      PW
     Min          34      34     11                 2594     2594     484
     Max          35      35     13                 2609     2609     493
     Sum         241     241     85                18211    18211    3425

     Using Slab Decomposition



     bravais-lattice index     =            4
     lattice parameter (alat)  =       4.6561  a.u.
     unit-cell volume          =     532.1899 (a.u.)^3
     number of atoms/cell      =            6
     number of atomic types    =            1
     number of electrons       =        24.00
     number of Kohn-Sham states=           16
     kinetic-energy cutoff     =      40.0000  Ry
     charge density cutoff     =     160.0000  Ry
     scf convergence threshold =      1.0E-08
     mixing beta               =       0.7000
     number of iterations used =            8  plain     mixing
     Exchange-correlation= PBE
                           (   1   4   3   4   0   0   0)

     celldm(1)=   4.656107  celldm(2)=   0.000000  celldm(3)=   6.087896
     celldm(4)=   0.000000  celldm(5)=   0.000000  celldm(6)=   0.000000

     crystal axes: (cart. coord. in units of alat)
               a(1) = (   1.000000   0.000000   0.000000 )  
               a(2) = (  -0.500000   0.866025   0.000000 )  
               a(3) = (   0.000000   0.000000   6.087896 )  

     reciprocal axes: (cart. coord. in units 2 pi/alat)
               b(1) = (  1.000000  0.577350 -0.000000 )  
               b(2) = (  0.000000  1.154701  0.000000 )  
               b(3) = (  0.000000 -0.000000  0.164260 )  


     PseudoPot. # 1 for C  read from file:
     /home/rfa/Skripsi/DFT/dft-graphene/pseudo/C.pbe-n-rrkjus_psl.0.1.UPF
     MD5 check sum: 96a6a315177d77e6c95bf6fd3870f9e3
     Pseudo is Ultrasoft + core correction, Zval =  4.0
     Generated using &quot;atomic&quot; code by A. Dal Corso  v.6.3MaX
     Using radial grid of 1073 points,  4 beta functions with: 
                l(1) =   0
                l(2) =   0
                l(3) =   1
                l(4) =   1
     Q(r) pseudized with 0 coefficients 


     atomic species   valence    mass     pseudopotential
     C                 4.00    12.01070     C ( 1.00)

     12 Sym. Ops. (no inversion) found



   Cartesian axes

     site n.     atom                  positions (alat units)
         1        C      tau(   1) = (   0.0000000   0.5773503   3.0439478  )
         2        C      tau(   2) = (   0.5000000   0.2886751   3.0439478  )
         3        C      tau(   3) = (   0.0000000   0.5773503   3.2468777  )
         4        C      tau(   4) = (   0.5000000   0.2886751   3.2468777  )
         5        C      tau(   5) = (   0.0000000   0.5773503   3.4498075  )
         6        C      tau(   6) = (   0.5000000   0.2886751   3.4498075  )

     number of k points=    19  Marzari-Vanderbilt smearing, width (Ry)=  0.0200
                       cart. coord. in units 2pi/alat
        k(    1) = (   0.0000000   0.0000000   0.0000000), wk =   0.0138889
        k(    2) = (   0.0000000   0.0962250   0.0000000), wk =   0.0833333
        k(    3) = (   0.0000000   0.1924501   0.0000000), wk =   0.0833333
        k(    4) = (   0.0000000   0.2886751   0.0000000), wk =   0.0833333
        k(    5) = (   0.0000000   0.3849002   0.0000000), wk =   0.0833333
        k(    6) = (   0.0000000   0.4811252   0.0000000), wk =   0.0833333
        k(    7) = (   0.0000000  -0.5773503   0.0000000), wk =   0.0416667
        k(    8) = (   0.0833333   0.1443376   0.0000000), wk =   0.0833333
        k(    9) = (   0.0833333   0.2405626   0.0000000), wk =   0.1666667
        k(   10) = (   0.0833333   0.3367877   0.0000000), wk =   0.1666667
        k(   11) = (   0.0833333   0.4330127   0.0000000), wk =   0.1666667
        k(   12) = (   0.0833333   0.5292377   0.0000000), wk =   0.1666667
        k(   13) = (   0.1666667   0.2886751   0.0000000), wk =   0.0833333
        k(   14) = (   0.1666667   0.3849002   0.0000000), wk =   0.1666667
        k(   15) = (   0.1666667   0.4811252   0.0000000), wk =   0.1666667
        k(   16) = (   0.1666667   0.5773503   0.0000000), wk =   0.0833333
        k(   17) = (   0.2500000   0.4330127   0.0000000), wk =   0.0833333
        k(   18) = (   0.2500000   0.5292377   0.0000000), wk =   0.1666667
        k(   19) = (   0.3333333   0.5773503   0.0000000), wk =   0.0277778

     Dense  grid:    18211 G-vectors     FFT dimensions: (  20,  20, 120)

     Estimated max dynamical RAM per process >       6.05 MB

     Estimated total dynamical RAM >      42.34 MB

     Check: negative core charge=   -0.000022

     Initial potential from superposition of free atoms

     starting charge      23.9998, renormalised to      24.0000

     negative rho (up, down):  1.286E-04 0.000E+00
     Starting wfcs are   24 randomized atomic wfcs

     total cpu time spent up to now is        0.8 secs

     per-process dynamical memory:    10.5 Mb

     Self-consistent Calculation

     iteration #  1     ecut=    40.00 Ry     beta= 0.70
     Davidson diagonalization with overlap
     ethr =  1.00E-02,  avg # of iterations =  9.8

     negative rho (up, down):  1.021E-02 0.000E+00

     total cpu time spent up to now is        1.4 secs

     total energy              =     -23.14860028 Ry
     estimated scf accuracy    <      24.46613374 Ry

     iteration #  2     ecut=    40.00 Ry     beta= 0.70
     Davidson diagonalization with overlap
     c_bands:  1 eigenvalues not converged
     ethr =  1.00E-02,  avg # of iterations = 15.9

     total cpu time spent up to now is        2.2 secs

     total energy              =     -12.86633341 Ry
     estimated scf accuracy    <      48.58436147 Ry

     iteration #  3     ecut=    40.00 Ry     beta= 0.70
     Davidson diagonalization with overlap
     ethr =  1.00E-02,  avg # of iterations = 12.3

     total cpu time spent up to now is        2.9 secs

     total energy              =     -31.51871845 Ry
     estimated scf accuracy    <       3.14561638 Ry

     iteration #  4     ecut=    40.00 Ry     beta= 0.70
     Davidson diagonalization with overlap
     ethr =  1.00E-02,  avg # of iterations =  1.8

     negative rho (up, down):  4.724E-06 0.000E+00

     total cpu time spent up to now is        3.1 secs

     total energy              =     -30.79823221 Ry
     estimated scf accuracy    <       1.69697296 Ry

     iteration #  5     ecut=    40.00 Ry     beta= 0.70
     Davidson diagonalization with overlap
     ethr =  7.07E-03,  avg # of iterations =  2.0

     negative rho (up, down):  6.652E-06 0.000E+00

     total cpu time spent up to now is        3.3 secs

     total energy              =     -30.85263930 Ry
     estimated scf accuracy    <       0.56057946 Ry

     iteration #  6     ecut=    40.00 Ry     beta= 0.70
     Davidson diagonalization with overlap
     ethr =  2.34E-03,  avg # of iterations =  2.9

     negative rho (up, down):  6.678E-06 0.000E+00

     total cpu time spent up to now is        3.5 secs

     total energy              =     -30.87530453 Ry
     estimated scf accuracy    <       0.51263382 Ry

     iteration #  7     ecut=    40.00 Ry     beta= 0.70
     Davidson diagonalization with overlap
     ethr =  2.14E-03,  avg # of iterations =  1.0

     negative rho (up, down):  1.869E-05 0.000E+00

     total cpu time spent up to now is        3.7 secs

     total energy              =     -30.77614163 Ry
     estimated scf accuracy    <       0.48819599 Ry

     iteration #  8     ecut=    40.00 Ry     beta= 0.70
     Davidson diagonalization with overlap
     ethr =  2.03E-03,  avg # of iterations =  1.6

     negative rho (up, down):  1.808E-02 0.000E+00

     total cpu time spent up to now is        3.9 secs

     total energy              =     -30.52074738 Ry
     estimated scf accuracy    <       0.33024808 Ry

     iteration #  9     ecut=    40.00 Ry     beta= 0.70
     Davidson diagonalization with overlap
     ethr =  1.38E-03,  avg # of iterations =  8.4

     negative rho (up, down):  2.442E-02 0.000E+00

     total cpu time spent up to now is        4.3 secs

     total energy              =     -30.63788946 Ry
     estimated scf accuracy    <       0.12644894 Ry

     iteration # 10     ecut=    40.00 Ry     beta= 0.70
     Davidson diagonalization with overlap
     c_bands:  2 eigenvalues not converged
     ethr =  5.27E-04,  avg # of iterations =  6.3

     negative rho (up, down):  7.454E-02 0.000E+00

     total cpu time spent up to now is        4.7 secs

     total energy              =     -30.68236550 Ry
     estimated scf accuracy    <       0.13750591 Ry

     iteration # 11     ecut=    40.00 Ry     beta= 0.70
     Davidson diagonalization with overlap
     ethr =  5.27E-04,  avg # of iterations =  8.7

     negative rho (up, down):  6.871E-03 0.000E+00

     total cpu time spent up to now is        5.0 secs

     total energy              =     -30.46933745 Ry
     estimated scf accuracy    <       1.26823616 Ry

     iteration # 12     ecut=    40.00 Ry     beta= 0.70
     Davidson diagonalization with overlap
     ethr =  5.27E-04,  avg # of iterations =  8.4

     negative rho (up, down):  2.314E-02 0.000E+00

     total cpu time spent up to now is        5.4 secs

     total energy              =     -30.64471394 Ry
     estimated scf accuracy    <       0.13097468 Ry

     iteration # 13     ecut=    40.00 Ry     beta= 0.70
     Davidson diagonalization with overlap
     ethr =  5.27E-04,  avg # of iterations =  2.3

     negative rho (up, down):  1.107E-02 0.000E+00

     total cpu time spent up to now is        5.6 secs

     total energy              =     -30.62715391 Ry
     estimated scf accuracy    <       0.14702444 Ry

     iteration # 14     ecut=    40.00 Ry     beta= 0.70
     Davidson diagonalization with overlap
     ethr =  5.27E-04,  avg # of iterations =  1.1

     negative rho (up, down):  6.814E-02 0.000E+00

     total cpu time spent up to now is        5.8 secs

     total energy              =     -30.64902157 Ry
     estimated scf accuracy    <       0.10250060 Ry

     iteration # 15     ecut=    40.00 Ry     beta= 0.70
     Davidson diagonalization with overlap
     ethr =  4.27E-04,  avg # of iterations = 10.3

     negative rho (up, down):  1.494E-01 0.000E+00

     total cpu time spent up to now is        6.2 secs

     total energy              =     -31.34419912 Ry
     estimated scf accuracy    <       2.51758004 Ry

     iteration # 16     ecut=    40.00 Ry     beta= 0.70
     Davidson diagonalization with overlap
     c_bands:  1 eigenvalues not converged
     c_bands:  1 eigenvalues not converged
     ethr =  4.27E-04,  avg # of iterations = 11.8

     negative rho (up, down):  1.792E-01 0.000E+00

     total cpu time spent up to now is        6.7 secs

     total energy              =     -33.14549732 Ry
     estimated scf accuracy    <      51.24799594 Ry

     iteration # 17     ecut=    40.00 Ry     beta= 0.70
     Davidson diagonalization with overlap
     ethr =  4.27E-04,  avg # of iterations =  8.4

     negative rho (up, down):  4.599E-02 0.000E+00

     total cpu time spent up to now is        7.1 secs

     total energy              =     -27.89403866 Ry
     estimated scf accuracy    <      96.10289314 Ry

     iteration # 18     ecut=    40.00 Ry     beta= 0.70
     Davidson diagonalization with overlap
     c_bands:  2 eigenvalues not converged
     c_bands:  1 eigenvalues not converged
     c_bands:  1 eigenvalues not converged
     c_bands:  2 eigenvalues not converged
     c_bands:  1 eigenvalues not converged
     ethr =  4.27E-04,  avg # of iterations = 11.7

     negative rho (up, down):  4.725E-05 0.000E+00

     total cpu time spent up to now is        7.5 secs

     total energy              =     -30.07730946 Ry
     estimated scf accuracy    <       1.06685502 Ry

     iteration # 19     ecut=    40.00 Ry     beta= 0.70
     Davidson diagonalization with overlap
     c_bands:  2 eigenvalues not converged
     c_bands:  2 eigenvalues not converged
     c_bands:  1 eigenvalues not converged
     c_bands:  2 eigenvalues not converged
     c_bands:  1 eigenvalues not converged
     c_bands:  1 eigenvalues not converged
     c_bands:  1 eigenvalues not converged
     c_bands:  1 eigenvalues not converged
     c_bands:  1 eigenvalues not converged
     c_bands:  1 eigenvalues not converged
     ethr =  4.27E-04,  avg # of iterations = 17.9

     negative rho (up, down):  2.361E-05 0.000E+00

     total cpu time spent up to now is        8.3 secs

     total energy              =     -30.68995960 Ry
     estimated scf accuracy    <       0.14228451 Ry

     iteration # 20     ecut=    40.00 Ry     beta= 0.70
     Davidson diagonalization with overlap
     ethr =  4.27E-04,  avg # of iterations =  4.9

     negative rho (up, down):  1.576E-04 0.000E+00

     total cpu time spent up to now is        8.6 secs

     total energy              =     -30.63030352 Ry
     estimated scf accuracy    <       0.15379937 Ry

     iteration # 21     ecut=    40.00 Ry     beta= 0.70
     Davidson diagonalization with overlap
     ethr =  4.27E-04,  avg # of iterations =  1.6

     negative rho (up, down):  2.842E-04 0.000E+00

     total cpu time spent up to now is        8.9 secs

     total energy              =     -30.62682405 Ry
     estimated scf accuracy    <       0.06127247 Ry

     iteration # 22     ecut=    40.00 Ry     beta= 0.70
     Davidson diagonalization with overlap
     ethr =  2.55E-04,  avg # of iterations =  2.3

     negative rho (up, down):  5.341E-04 0.000E+00

     total cpu time spent up to now is        9.2 secs

     total energy              =     -30.61268441 Ry
     estimated scf accuracy    <       0.04973586 Ry

     iteration # 23     ecut=    40.00 Ry     beta= 0.70
     Davidson diagonalization with overlap
     ethr =  2.07E-04,  avg # of iterations =  4.8

     negative rho (up, down):  4.041E-03 0.000E+00

     total cpu time spent up to now is        9.5 secs

     total energy              =     -30.60064322 Ry
     estimated scf accuracy    <       0.02611933 Ry

     iteration # 24     ecut=    40.00 Ry     beta= 0.70
     Davidson diagonalization with overlap
     c_bands:  1 eigenvalues not converged
     c_bands:  1 eigenvalues not converged
     ethr =  1.09E-04,  avg # of iterations = 11.1

     negative rho (up, down):  9.746E-03 0.000E+00

     total cpu time spent up to now is        9.9 secs

     total energy              =     -30.60066679 Ry
     estimated scf accuracy    <       0.00577423 Ry

     iteration # 25     ecut=    40.00 Ry     beta= 0.70
     Davidson diagonalization with overlap
     c_bands:  1 eigenvalues not converged
     c_bands:  2 eigenvalues not converged
     ethr =  2.41E-05,  avg # of iterations = 11.7

     negative rho (up, down):  4.857E-03 0.000E+00

     total cpu time spent up to now is       10.4 secs

     total energy              =     -30.60371019 Ry
     estimated scf accuracy    <       0.00178182 Ry

     iteration # 26     ecut=    40.00 Ry     beta= 0.70
     Davidson diagonalization with overlap
     c_bands:  1 eigenvalues not converged
     ethr =  7.42E-06,  avg # of iterations = 12.2

     negative rho (up, down):  5.512E-03 0.000E+00

     total cpu time spent up to now is       10.9 secs

     total energy              =     -30.60449189 Ry
     estimated scf accuracy    <       0.00467136 Ry

     iteration # 27     ecut=    40.00 Ry     beta= 0.70
     Davidson diagonalization with overlap
     ethr =  7.42E-06,  avg # of iterations =  2.7

     negative rho (up, down):  1.616E-02 0.000E+00

     total cpu time spent up to now is       11.2 secs

     total energy              =     -30.59954144 Ry
     estimated scf accuracy    <       0.00637070 Ry

     iteration # 28     ecut=    40.00 Ry     beta= 0.70
     Davidson diagonalization with overlap
     c_bands:  1 eigenvalues not converged
     c_bands:  1 eigenvalues not converged
     c_bands:  2 eigenvalues not converged
     c_bands:  1 eigenvalues not converged
     c_bands:  1 eigenvalues not converged
     c_bands:  2 eigenvalues not converged
     ethr =  7.42E-06,  avg # of iterations = 16.4

     negative rho (up, down):  1.483E-02 0.000E+00

     total cpu time spent up to now is       11.8 secs

     total energy              =     -30.60053248 Ry
     estimated scf accuracy    <       0.00067450 Ry

     iteration # 29     ecut=    40.00 Ry     beta= 0.70
     Davidson diagonalization with overlap
     c_bands:  1 eigenvalues not converged
     c_bands:  1 eigenvalues not converged
     ethr =  2.81E-06,  avg # of iterations = 11.9

     negative rho (up, down):  1.512E-02 0.000E+00

     total cpu time spent up to now is       12.2 secs

     total energy              =     -30.60071201 Ry
     estimated scf accuracy    <       0.00005664 Ry

     iteration # 30     ecut=    40.00 Ry     beta= 0.70
     Davidson diagonalization with overlap
     c_bands:  1 eigenvalues not converged
     c_bands:  1 eigenvalues not converged
     ethr =  2.36E-07,  avg # of iterations =  5.9

     negative rho (up, down):  1.513E-02 0.000E+00

     total cpu time spent up to now is       12.6 secs

     total energy              =     -30.60070432 Ry
     estimated scf accuracy    <       0.00005116 Ry

     iteration # 31     ecut=    40.00 Ry     beta= 0.70
     Davidson diagonalization with overlap
     c_bands:  1 eigenvalues not converged
     ethr =  2.13E-07,  avg # of iterations =  4.2

     negative rho (up, down):  1.517E-02 0.000E+00

     total cpu time spent up to now is       12.8 secs

     total energy              =     -30.60071493 Ry
     estimated scf accuracy    <       0.00000029 Ry

     iteration # 32     ecut=    40.00 Ry     beta= 0.70
     Davidson diagonalization with overlap
     c_bands:  1 eigenvalues not converged
     ethr =  1.19E-09,  avg # of iterations = 15.8

     negative rho (up, down):  1.517E-02 0.000E+00

     total cpu time spent up to now is       13.9 secs

     total energy              =     -30.60071989 Ry
     estimated scf accuracy    <       0.00000220 Ry

     iteration # 33     ecut=    40.00 Ry     beta= 0.70
     Davidson diagonalization with overlap
     ethr =  1.19E-09,  avg # of iterations =  1.5

     negative rho (up, down):  1.517E-02 0.000E+00

     total cpu time spent up to now is       14.1 secs

     total energy              =     -30.60071910 Ry
     estimated scf accuracy    <       0.00000179 Ry

     iteration # 34     ecut=    40.00 Ry     beta= 0.70
     Davidson diagonalization with overlap
     ethr =  1.19E-09,  avg # of iterations =  5.1

     negative rho (up, down):  1.517E-02 0.000E+00

     total cpu time spent up to now is       14.5 secs

     total energy              =     -30.60071931 Ry
     estimated scf accuracy    <       0.00000008 Ry

     iteration # 35     ecut=    40.00 Ry     beta= 0.70
     Davidson diagonalization with overlap
     ethr =  3.52E-10,  avg # of iterations =  5.0

     negative rho (up, down):  1.517E-02 0.000E+00

     total cpu time spent up to now is       14.8 secs

     End of self-consistent calculation

          k = 0.0000 0.0000 0.0000 (  2289 PWs)   bands (ev):

   -31.1029 -31.1029 -26.6426 -21.0565 -18.2903 -18.2903 -10.3653  -6.4342
    -4.3942  -3.7662  -3.7662   4.2142   4.2888   4.8363   5.6545   7.3850

          k = 0.0000 0.0962 0.0000 (  2286 PWs)   bands (ev):

   -31.2852 -31.1909 -27.0088 -21.0346 -17.9089 -17.3749 -10.2039  -7.3521
    -4.3409  -4.0243  -3.2477   3.8620   4.5164   5.0527   5.8776   7.5349

          k = 0.0000 0.1925 0.0000 (  2280 PWs)   bands (ev):

   -31.7431 -31.5140 -27.5989 -20.6493 -16.8856 -15.0969  -9.7129  -9.0223
    -4.6514  -4.1015  -2.5217   2.9215   5.1992   5.7025   6.5460   7.9416

          k = 0.0000 0.2887 0.0000 (  2278 PWs)   bands (ev):

   -32.2963 -32.0995 -27.8577 -20.0069 -15.5053 -12.0938 -10.8557  -8.9061
    -5.3768  -3.7745  -2.0260   1.5137   6.3332   6.7702   7.6424   8.3716

          k = 0.0000 0.3849 0.0000 (  2272 PWs)   bands (ev):

   -32.7875 -32.7408 -27.8032 -19.0561 -14.1083 -12.6221  -8.8405  -7.7040
    -5.9993  -3.4443  -1.6814  -0.1660   6.8358   7.8945   7.9136   8.7523

          k = 0.0000 0.4811 0.0000 (  2282 PWs)   bands (ev):

   -33.2037 -33.1162 -27.6619 -18.0480 -14.1485 -13.0556  -6.9370  -6.4073
    -4.9677  -3.2490  -1.7767  -1.4240   3.6562   7.1472   7.8220  10.0098

          k = 0.0000-0.5774 0.0000 (  2260 PWs)   bands (ev):

   -33.3697 -33.2312 -27.5972 -17.3720 -14.9200 -12.6604  -6.5484  -6.2486
    -3.1764  -2.6810  -2.6248  -1.2955   1.4160   6.6221   7.6798  12.3867

          k = 0.0833 0.1443 0.0000 (  2291 PWs)   bands (ev):

   -31.6985 -31.2910 -27.4798 -20.8200 -17.1827 -15.8218  -9.8803  -8.5100
    -4.6926  -3.9998  -2.6635   3.2290   4.9714   5.4858   6.3230   7.8162

          k = 0.0833 0.2406 0.0000 (  2281 PWs)   bands (ev):

   -32.3898 -31.5146 -27.9011 -20.2388 -15.9244 -13.2765 -10.0445  -9.2266
    -5.5051  -3.6269  -2.0357   2.0817   5.8797   6.3494   7.2061   8.3073

          k = 0.0833 0.3368 0.0000 (  2266 PWs)   bands (ev):

   -33.1119 -31.8732 -28.0151 -19.4257 -14.4762 -11.8573 -10.2036  -8.2515
    -6.2939  -3.1802  -1.6868   0.5594   7.2109   7.5838   7.8496   8.6687

          k = 0.0833 0.4330 0.0000 (  2279 PWs)   bands (ev):

   -33.6826 -32.2212 -27.9304 -18.4601 -13.4671 -13.1974  -7.5094  -6.8807
    -6.4189  -2.8087  -1.4424  -1.0903   5.1097   7.2831   8.1321   9.1019

          k = 0.0833 0.5292 0.0000 (  2273 PWs)   bands (ev):

   -33.9930 -32.4255 -27.8324 -17.5672 -14.7074 -12.4382  -7.1884  -6.3212
    -3.3810  -2.6193  -2.4279  -1.2908   2.0952   6.1351   7.8871  11.3498

          k = 0.1667 0.2887 0.0000 (  2273 PWs)   bands (ev):

   -33.2298 -31.4512 -28.2105 -19.6408 -14.5121 -11.5333 -10.7826  -8.4210
    -6.6409  -3.0245  -1.5838   0.8538   6.9909   7.4118   7.9286   8.5421

          k = 0.1667 0.3849 0.0000 (  2279 PWs)   bands (ev):

   -33.9532 -31.4618 -28.3748 -18.7265 -13.0503 -12.9006  -8.0635  -7.5957
    -7.1499  -2.3995  -1.2230  -0.6015   5.7825   7.3628   8.6268   8.6606

          k = 0.1667 0.4811 0.0000 (  2273 PWs)   bands (ev):

   -34.4275 -31.5228 -28.4016 -17.7678 -14.2484 -11.9459  -8.2108  -6.4562
    -4.4653  -2.0680  -1.9093  -1.1080   3.2783   5.1878   8.5256  10.7625

          k = 0.1667 0.5774 0.0000 (  2254 PWs)   bands (ev):

   -34.5913 -31.5570 -28.3924 -17.1396 -15.1159 -11.5327  -8.4194  -5.7272
    -2.9248  -2.3130  -1.6652  -1.1708   1.1863   4.5948   8.3454  11.5039

          k = 0.2500 0.4330 0.0000 (  2269 PWs)   bands (ev):

   -34.5765 -31.0363 -28.7889 -17.8308 -14.0513 -11.6692  -8.6677  -6.5266
    -4.9589  -1.8880  -1.7114  -0.9251   4.0775   4.4815   9.4247   9.8081

          k = 0.2500 0.5292 0.0000 (  2253 PWs)   bands (ev):

   -34.9034 -30.7287 -29.0931 -16.8445 -15.1149 -10.8138  -9.2499  -5.3467
    -3.1128  -2.3658  -1.1812  -0.9035   1.5832   3.1984   9.1834  10.5155

          k = 0.3333 0.5774 0.0000 (  2259 PWs)   bands (ev):

   -35.0671 -29.8961 -29.8961 -15.9431 -15.9431 -10.3435  -9.6433  -4.2034
    -4.2034  -0.8698  -0.8698  -0.3000  -0.3000   2.3777   9.9035   9.9035

     the Fermi energy is     2.0373 ev

!    total energy              =     -30.60071935 Ry
     estimated scf accuracy    <          9.1E-09 Ry
     smearing contrib. (-TS)   =      -0.00033715 Ry
     internal energy E=F+TS    =     -30.60038220 Ry

     The total energy is F=E-TS. E is the sum of the following terms:
     one-electron contribution =   -1368.30917997 Ry
     hartree contribution      =     692.25007754 Ry
     xc contribution           =     -35.31792263 Ry
     ewald contribution        =     680.77664286 Ry

     convergence has been achieved in  35 iterations

     negative rho (up, down):  1.517E-02 0.000E+00

     Forces acting on atoms (cartesian axes, Ry/au):

     atom    1 type  1   force =    -0.00000000    0.00000000  -23.84595894
     atom    2 type  1   force =     0.00000000   -0.00000000  -23.84595894
     atom    3 type  1   force =     0.00000000    0.00000000   -0.00005580
     atom    4 type  1   force =     0.00000000    0.00000000   -0.00005580
     atom    5 type  1   force =     0.00000000    0.00000000   23.84601474
     atom    6 type  1   force =     0.00000000    0.00000000   23.84601474

     Total force =    47.691974     Total SCF correction =     0.000339


     Computing stress (Cartesian axis) and pressure


     negative rho (up, down):  1.517E-02 0.000E+00
          total   stress  (Ry/bohr**3)                   (kbar)     P=     8712.51
   0.01068130   0.00000000   0.00000000         1571.27        0.00        0.00
   0.00000000   0.01068130  -0.00000000            0.00     1571.27       -0.00
   0.00000000  -0.00000000   0.15631673            0.00       -0.00    22994.99


     Writing all to output data dir /home/rfa/Skripsi/DFT/dft-graphene/tmp/gr-aa-3L.save/ :
     XML data file, charge density, pseudopotentials, collected wavefunctions

     init_run     :      0.53s CPU      0.73s WALL (       1 calls)
     electrons    :     25.88s CPU     14.03s WALL (       1 calls)
     forces       :      0.06s CPU      0.03s WALL (       1 calls)
     stress       :      0.16s CPU      0.10s WALL (       1 calls)

     Called by init_run:
     wfcinit      :      0.20s CPU      0.10s WALL (       1 calls)
     potinit      :      0.00s CPU      0.01s WALL (       1 calls)
     hinit0       :      0.32s CPU      0.61s WALL (       1 calls)

     Called by electrons:
     c_bands      :     23.11s CPU     12.47s WALL (      35 calls)
     sum_band     :      2.19s CPU      1.19s WALL (      35 calls)
     v_of_rho     :      0.28s CPU      0.15s WALL (      36 calls)
     newd         :      0.15s CPU      0.14s WALL (      36 calls)
     mix_rho      :      0.10s CPU      0.05s WALL (      35 calls)

     Called by c_bands:
     init_us_2    :      0.41s CPU      0.23s WALL (    1387 calls)
     cegterg      :     22.19s CPU     11.92s WALL (     665 calls)

     Called by *egterg:
     cdiaghg      :      4.06s CPU      2.11s WALL (    5600 calls)
     h_psi        :     13.69s CPU      7.44s WALL (    5619 calls)
     s_psi        :      0.56s CPU      0.28s WALL (    5619 calls)
     g_psi        :      0.17s CPU      0.09s WALL (    4935 calls)

     Called by h_psi:
     h_psi:calbec :      2.10s CPU      1.14s WALL (    5619 calls)
     vloc_psi     :     10.24s CPU      5.55s WALL (    5619 calls)
     add_vuspsi   :      1.09s CPU      0.58s WALL (    5619 calls)

     General routines
     calbec       :      2.33s CPU      1.28s WALL (    6607 calls)
     fft          :      0.39s CPU      0.64s WALL (     421 calls)
     ffts         :      0.01s CPU      0.01s WALL (      35 calls)
     fftw         :      9.19s CPU      4.94s WALL (   86328 calls)

     Parallel routines

     PWSCF        :     26.71s CPU     15.14s WALL


   This run was terminated on:  14:34:42  16Apr2025            

=------------------------------------------------------------------------------=
   JOB DONE.
=------------------------------------------------------------------------------=
