
     Program PWSCF v.7.4.1 starts on 16Apr2025 at 14:36: 6 

     This program is part of the open-source Quantum ESPRESSO suite
     for quantum simulation of materials; please cite
         "P. Giannozzi et al., J. Phys.:Condens. Matter 21 395502 (2009);
         "P. Giannozzi et al., J. Phys.:Condens. Matter 29 465901 (2017);
         "P. Giannozzi et al., J. Chem. Phys. 152 154105 (2020);
          URL http://www.quantum-espresso.org", 
     in publications or presentations arising from this work. More details at
     http://www.quantum-espresso.org/quote

     Parallel version (MPI), running on     7 processors

     MPI processes distributed on     1 nodes
     13709 MiB available memory on the printing compute node when the environment starts

     Waiting for input...
     Reading input from standard input

     Current dimensions of program PWSCF are:
     Max number of different atomic species (ntypx) = 10
     Max number of k-points (npk) =  40000
     Max angular momentum in pseudopotentials (lmaxx) =  4

     R & G space division:  proc/nbgrp/npool/nimage =       7
     Subspace diagonalization in iterative solution of the eigenvalue problem:
     a serial algorithm will be used


     Parallelization info
     --------------------
     sticks:   dense  smooth     PW     G-vecs:    dense   smooth      PW
     Min          54      54     17                 5366     5366     925
     Max          55      55     18                 5395     5395     942
     Sum         379     379    121                37615    37615    6525

     Using Slab Decomposition



     bravais-lattice index     =            4
     lattice parameter (alat)  =       4.6561  a.u.
     unit-cell volume          =     532.1899 (a.u.)^3
     number of atoms/cell      =            6
     number of atomic types    =            1
     number of electrons       =        24.00
     number of Kohn-Sham states=           16
     kinetic-energy cutoff     =      65.0000  Ry
     charge density cutoff     =     260.0000  Ry
     scf convergence threshold =      1.0E-08
     mixing beta               =       0.7000
     number of iterations used =            8  plain     mixing
     Exchange-correlation= PBE
                           (   1   4   3   4   0   0   0)

     celldm(1)=   4.656107  celldm(2)=   0.000000  celldm(3)=   6.087896
     celldm(4)=   0.000000  celldm(5)=   0.000000  celldm(6)=   0.000000

     crystal axes: (cart. coord. in units of alat)
               a(1) = (   1.000000   0.000000   0.000000 )  
               a(2) = (  -0.500000   0.866025   0.000000 )  
               a(3) = (   0.000000   0.000000   6.087896 )  

     reciprocal axes: (cart. coord. in units 2 pi/alat)
               b(1) = (  1.000000  0.577350 -0.000000 )  
               b(2) = (  0.000000  1.154701  0.000000 )  
               b(3) = (  0.000000 -0.000000  0.164260 )  


     PseudoPot. # 1 for C  read from file:
     /home/rfa/Skripsi/DFT/dft-graphene/pseudo/C.pbe-n-rrkjus_psl.0.1.UPF
     MD5 check sum: 96a6a315177d77e6c95bf6fd3870f9e3
     Pseudo is Ultrasoft + core correction, Zval =  4.0
     Generated using &quot;atomic&quot; code by A. Dal Corso  v.6.3MaX
     Using radial grid of 1073 points,  4 beta functions with: 
                l(1) =   0
                l(2) =   0
                l(3) =   1
                l(4) =   1
     Q(r) pseudized with 0 coefficients 


     atomic species   valence    mass     pseudopotential
     C                 4.00    12.01070     C ( 1.00)

     12 Sym. Ops. (no inversion) found



   Cartesian axes

     site n.     atom                  positions (alat units)
         1        C      tau(   1) = (   0.0000000   0.5773503   3.0439478  )
         2        C      tau(   2) = (   0.5000000   0.2886751   3.0439478  )
         3        C      tau(   3) = (   0.0000000   0.5773503   3.2468777  )
         4        C      tau(   4) = (   0.5000000   0.2886751   3.2468777  )
         5        C      tau(   5) = (   0.0000000   0.5773503   3.4498075  )
         6        C      tau(   6) = (   0.5000000   0.2886751   3.4498075  )

     number of k points=    19  Marzari-Vanderbilt smearing, width (Ry)=  0.0200
                       cart. coord. in units 2pi/alat
        k(    1) = (   0.0000000   0.0000000   0.0000000), wk =   0.0138889
        k(    2) = (   0.0000000   0.0962250   0.0000000), wk =   0.0833333
        k(    3) = (   0.0000000   0.1924501   0.0000000), wk =   0.0833333
        k(    4) = (   0.0000000   0.2886751   0.0000000), wk =   0.0833333
        k(    5) = (   0.0000000   0.3849002   0.0000000), wk =   0.0833333
        k(    6) = (   0.0000000   0.4811252   0.0000000), wk =   0.0833333
        k(    7) = (   0.0000000  -0.5773503   0.0000000), wk =   0.0416667
        k(    8) = (   0.0833333   0.1443376   0.0000000), wk =   0.0833333
        k(    9) = (   0.0833333   0.2405626   0.0000000), wk =   0.1666667
        k(   10) = (   0.0833333   0.3367877   0.0000000), wk =   0.1666667
        k(   11) = (   0.0833333   0.4330127   0.0000000), wk =   0.1666667
        k(   12) = (   0.0833333   0.5292377   0.0000000), wk =   0.1666667
        k(   13) = (   0.1666667   0.2886751   0.0000000), wk =   0.0833333
        k(   14) = (   0.1666667   0.3849002   0.0000000), wk =   0.1666667
        k(   15) = (   0.1666667   0.4811252   0.0000000), wk =   0.1666667
        k(   16) = (   0.1666667   0.5773503   0.0000000), wk =   0.0833333
        k(   17) = (   0.2500000   0.4330127   0.0000000), wk =   0.0833333
        k(   18) = (   0.2500000   0.5292377   0.0000000), wk =   0.1666667
        k(   19) = (   0.3333333   0.5773503   0.0000000), wk =   0.0277778

     Dense  grid:    37615 G-vectors     FFT dimensions: (  24,  24, 150)

     Estimated max dynamical RAM per process >      12.13 MB

     Estimated total dynamical RAM >      84.91 MB

     Check: negative core charge=   -0.000005

     Initial potential from superposition of free atoms

     starting charge      23.9998, renormalised to      24.0000

     negative rho (up, down):  1.651E-05 0.000E+00
     Starting wfcs are   24 randomized atomic wfcs

     total cpu time spent up to now is        0.8 secs

     per-process dynamical memory:    13.9 Mb

     Self-consistent Calculation

     iteration #  1     ecut=    65.00 Ry     beta= 0.70
     Davidson diagonalization with overlap
     ethr =  1.00E-02,  avg # of iterations = 10.7

     negative rho (up, down):  1.798E-03 0.000E+00

     total cpu time spent up to now is        2.5 secs

     total energy              =     -23.90444762 Ry
     estimated scf accuracy    <      24.91244789 Ry

     iteration #  2     ecut=    65.00 Ry     beta= 0.70
     Davidson diagonalization with overlap
     c_bands:  1 eigenvalues not converged
     c_bands:  2 eigenvalues not converged
     c_bands:  1 eigenvalues not converged
     c_bands:  3 eigenvalues not converged
     c_bands:  5 eigenvalues not converged
     ethr =  1.00E-02,  avg # of iterations = 14.7

     total cpu time spent up to now is        4.5 secs

     total energy              =     -18.59654639 Ry
     estimated scf accuracy    <      32.26965953 Ry

     iteration #  3     ecut=    65.00 Ry     beta= 0.70
     Davidson diagonalization with overlap
     c_bands:  1 eigenvalues not converged
     c_bands:  3 eigenvalues not converged
     ethr =  1.00E-02,  avg # of iterations = 12.3

     total cpu time spent up to now is        5.9 secs

     total energy              =     -31.92934064 Ry
     estimated scf accuracy    <       2.72981292 Ry

     iteration #  4     ecut=    65.00 Ry     beta= 0.70
     Davidson diagonalization with overlap
     ethr =  1.00E-02,  avg # of iterations =  1.7

     total cpu time spent up to now is        6.4 secs

     total energy              =     -31.28234893 Ry
     estimated scf accuracy    <       1.27255063 Ry

     iteration #  5     ecut=    65.00 Ry     beta= 0.70
     Davidson diagonalization with overlap
     ethr =  5.30E-03,  avg # of iterations =  2.5

     total cpu time spent up to now is        7.0 secs

     total energy              =     -31.32207436 Ry
     estimated scf accuracy    <       0.25391419 Ry

     iteration #  6     ecut=    65.00 Ry     beta= 0.70
     Davidson diagonalization with overlap
     ethr =  1.06E-03,  avg # of iterations =  6.0

     total cpu time spent up to now is        7.9 secs

     total energy              =     -31.41253061 Ry
     estimated scf accuracy    <       0.09105625 Ry

     iteration #  7     ecut=    65.00 Ry     beta= 0.70
     Davidson diagonalization with overlap
     c_bands:  2 eigenvalues not converged
     ethr =  3.79E-04,  avg # of iterations =  5.1

     negative rho (up, down):  3.472E-03 0.000E+00

     total cpu time spent up to now is        8.7 secs

     total energy              =     -31.36433043 Ry
     estimated scf accuracy    <       0.09533221 Ry

     iteration #  8     ecut=    65.00 Ry     beta= 0.70
     Davidson diagonalization with overlap
     c_bands:  1 eigenvalues not converged
     c_bands:  1 eigenvalues not converged
     c_bands:  1 eigenvalues not converged
     ethr =  3.79E-04,  avg # of iterations = 14.4

     negative rho (up, down):  1.326E-04 0.000E+00

     total cpu time spent up to now is       10.0 secs

     total energy              =     -31.37785744 Ry
     estimated scf accuracy    <       0.02110350 Ry

     iteration #  9     ecut=    65.00 Ry     beta= 0.70
     Davidson diagonalization with overlap
     c_bands:  1 eigenvalues not converged
     c_bands:  1 eigenvalues not converged
     ethr =  8.79E-05,  avg # of iterations = 11.7

     negative rho (up, down):  3.733E-04 0.000E+00

     total cpu time spent up to now is       11.1 secs

     total energy              =     -31.38369747 Ry
     estimated scf accuracy    <       0.00742377 Ry

     iteration # 10     ecut=    65.00 Ry     beta= 0.70
     Davidson diagonalization with overlap
     ethr =  3.09E-05,  avg # of iterations =  4.3

     negative rho (up, down):  9.859E-04 0.000E+00

     total cpu time spent up to now is       11.8 secs

     total energy              =     -31.38353651 Ry
     estimated scf accuracy    <       0.00350235 Ry

     iteration # 11     ecut=    65.00 Ry     beta= 0.70
     Davidson diagonalization with overlap
     ethr =  1.46E-05,  avg # of iterations =  7.5

     negative rho (up, down):  2.215E-03 0.000E+00

     total cpu time spent up to now is       12.6 secs

     total energy              =     -31.38361689 Ry
     estimated scf accuracy    <       0.00095002 Ry

     iteration # 12     ecut=    65.00 Ry     beta= 0.70
     Davidson diagonalization with overlap
     c_bands:  1 eigenvalues not converged
     c_bands:  1 eigenvalues not converged
     ethr =  3.96E-06,  avg # of iterations = 10.9

     negative rho (up, down):  2.146E-03 0.000E+00

     total cpu time spent up to now is       13.9 secs

     total energy              =     -31.38419534 Ry
     estimated scf accuracy    <       0.00001523 Ry

     iteration # 13     ecut=    65.00 Ry     beta= 0.70
     Davidson diagonalization with overlap
     c_bands:  2 eigenvalues not converged
     ethr =  6.34E-08,  avg # of iterations = 15.8

     negative rho (up, down):  2.157E-03 0.000E+00

     total cpu time spent up to now is       16.4 secs

     total energy              =     -31.38436029 Ry
     estimated scf accuracy    <       0.00001337 Ry

     iteration # 14     ecut=    65.00 Ry     beta= 0.70
     Davidson diagonalization with overlap
     c_bands:  1 eigenvalues not converged
     c_bands:  1 eigenvalues not converged
     ethr =  5.57E-08,  avg # of iterations =  5.4

     negative rho (up, down):  2.187E-03 0.000E+00

     total cpu time spent up to now is       17.1 secs

     total energy              =     -31.38435972 Ry
     estimated scf accuracy    <       0.00000485 Ry

     iteration # 15     ecut=    65.00 Ry     beta= 0.70
     Davidson diagonalization with overlap
     c_bands:  1 eigenvalues not converged
     ethr =  2.02E-08,  avg # of iterations =  5.3

     negative rho (up, down):  2.188E-03 0.000E+00

     total cpu time spent up to now is       17.9 secs

     total energy              =     -31.38436072 Ry
     estimated scf accuracy    <       0.00000191 Ry

     iteration # 16     ecut=    65.00 Ry     beta= 0.70
     Davidson diagonalization with overlap
     ethr =  7.97E-09,  avg # of iterations =  3.9

     negative rho (up, down):  2.187E-03 0.000E+00

     total cpu time spent up to now is       18.6 secs

     total energy              =     -31.38436123 Ry
     estimated scf accuracy    <       0.00000003 Ry

     iteration # 17     ecut=    65.00 Ry     beta= 0.70
     Davidson diagonalization with overlap
     ethr =  1.15E-10,  avg # of iterations = 16.8

     negative rho (up, down):  2.187E-03 0.000E+00

     total cpu time spent up to now is       21.3 secs

     total energy              =     -31.38436154 Ry
     estimated scf accuracy    <       0.00000009 Ry

     iteration # 18     ecut=    65.00 Ry     beta= 0.70
     Davidson diagonalization with overlap
     ethr =  1.15E-10,  avg # of iterations =  1.4

     negative rho (up, down):  2.187E-03 0.000E+00

     total cpu time spent up to now is       21.9 secs

     total energy              =     -31.38436150 Ry
     estimated scf accuracy    <       0.00000008 Ry

     iteration # 19     ecut=    65.00 Ry     beta= 0.70
     Davidson diagonalization with overlap
     ethr =  1.15E-10,  avg # of iterations =  6.8

     negative rho (up, down):  2.186E-03 0.000E+00

     total cpu time spent up to now is       23.0 secs

     total energy              =     -31.38436151 Ry
     estimated scf accuracy    <       0.00000008 Ry

     iteration # 20     ecut=    65.00 Ry     beta= 0.70
     Davidson diagonalization with overlap
     ethr =  1.15E-10,  avg # of iterations =  2.7

     negative rho (up, down):  2.186E-03 0.000E+00

     total cpu time spent up to now is       23.6 secs

     End of self-consistent calculation

          k = 0.0000 0.0000 0.0000 (  4651 PWs)   bands (ev):

   -30.7683 -30.7683 -26.4489 -22.1930 -17.9512 -17.9512 -10.2752  -8.9733
    -4.5234  -3.6061  -3.6061   4.2903   5.0255   5.5530   6.2478   7.9964

          k = 0.0000 0.0962 0.0000 (  4651 PWs)   bands (ev):

   -30.9506 -30.8555 -26.8027 -22.0605 -17.5666 -17.0449 -10.1096  -9.4817
    -4.4371  -3.8643  -3.3533   3.9562   5.2522   5.7629   6.4706   8.0573

          k = 0.0000 0.1925 0.0000 (  4667 PWs)   bands (ev):

   -31.4109 -31.1882 -27.3684 -21.6702 -16.5348 -14.7863 -10.7274  -9.6166
    -4.4921  -4.2452  -2.8333   3.0104   5.9311   6.3892   7.1365   8.2358

          k = 0.0000 0.2887 0.0000 (  4686 PWs)   bands (ev):

   -31.9672 -31.7879 -27.6019 -21.0359 -15.1418 -12.2827 -11.8043  -8.8030
    -5.2184  -4.0481  -2.3183   1.5962   7.0556   7.3804   8.2225   8.4980

          k = 0.0000 0.3849 0.0000 (  4690 PWs)   bands (ev):

   -32.4605 -32.4381 -27.5315 -20.1915 -13.8897 -13.7322  -8.6223  -7.5466
    -5.8415  -3.9312  -1.8474  -0.0812   7.0043   7.9596   8.5289   9.1354

          k = 0.0000 0.4811 0.0000 (  4700 PWs)   bands (ev):

   -32.9058 -32.7910 -27.3817 -19.2448 -15.3333 -12.6692  -6.8562  -6.2498
    -4.6781  -3.8995  -1.6957  -1.4645   3.8327   7.3476   7.6651  10.7310

          k = 0.0000-0.5774 0.0000 (  4724 PWs)   bands (ev):

   -33.0725 -32.9063 -27.3134 -18.6756 -16.0726 -12.2702  -6.3911  -6.1728
    -3.8987  -2.5923  -2.3129  -1.3082   1.5681   6.8186   7.4914  12.5018

          k = 0.0833 0.1443 0.0000 (  4666 PWs)   bands (ev):

   -31.3683 -30.9587 -27.2559 -21.7989 -16.8333 -15.5049 -10.3406  -9.7803
    -4.6286  -3.9856  -2.9688   3.3202   5.7049   6.1812   6.9147   8.1791

          k = 0.0833 0.2406 0.0000 (  4682 PWs)   bands (ev):

   -32.0668 -31.1892 -27.6553 -21.2867 -15.5668 -12.9791 -11.6799  -9.1283
    -5.4128  -3.6982  -2.4531   2.1612   6.6063   7.0034   7.7920   8.4784

          k = 0.0833 0.3368 0.0000 (  4711 PWs)   bands (ev):

   -32.7954 -31.5542 -27.7501 -20.5444 -14.1068 -13.2013  -9.9360  -8.1402
    -6.2119  -3.3959  -1.9827   0.6440   7.8041   8.0104   8.1685   8.8577

          k = 0.0833 0.4330 0.0000 (  4717 PWs)   bands (ev):

   -33.3705 -31.9068 -27.6518 -19.6276 -14.7039 -12.8154  -7.4058  -6.8129
    -6.1558  -3.2064  -1.5762  -1.0056   5.2839   7.4947   7.9946  10.1901

          k = 0.0833 0.5292 0.0000 (  4726 PWs)   bands (ev):

   -33.6827 -32.1135 -27.5476 -18.7547 -15.8872 -12.0470  -7.1292  -6.2421
    -3.1330  -3.0926  -2.3286  -1.3088   2.2676   6.3350   7.6884  11.8709

          k = 0.1667 0.2887 0.0000 (  4706 PWs)   bands (ev):

   -32.9136 -31.1284 -27.9491 -20.6627 -14.1423 -12.9065 -10.5080  -8.3136
    -6.5508  -3.0483  -1.9672   0.9324   7.6538   7.9737   8.2466   9.0609

          k = 0.1667 0.3849 0.0000 (  4727 PWs)   bands (ev):

   -33.6404 -31.1447 -28.0990 -19.8332 -14.2417 -12.6688  -7.8937  -7.5177
    -6.9502  -2.4846  -1.5552  -0.5245   5.9518   7.5778   8.6756   9.3416

          k = 0.1667 0.4811 0.0000 (  4736 PWs)   bands (ev):

   -34.1167 -31.2115 -28.1149 -18.8892 -15.5167 -11.5538  -8.1406  -6.3769
    -4.1848  -2.1046  -1.9911  -1.2785   3.4638   5.3912   8.2914  10.7484

          k = 0.1667 0.5774 0.0000 (  4744 PWs)   bands (ev):

   -34.2814 -31.2467 -28.1024 -18.2945 -16.2233 -11.1352  -8.3531  -5.6509
    -2.8408  -2.0116  -1.9756  -1.1709   1.3597   4.7907   8.0966  11.2719

          k = 0.2500 0.4330 0.0000 (  4736 PWs)   bands (ev):

   -34.2651 -30.7232 -28.5029 -18.9497 -15.3226 -11.2756  -8.5626  -6.4473
    -4.6837  -1.8096  -1.7421  -1.1991   4.2437   4.7133   9.0960   9.6616

          k = 0.2500 0.5292 0.0000 (  4754 PWs)   bands (ev):

   -34.5934 -30.4202 -28.7993 -18.0405 -16.3233 -10.4101  -9.1296  -5.2734
    -3.0330  -2.0907  -1.2812  -1.0525   1.8022   3.3770   8.8550  10.2068

          k = 0.3333 0.5774 0.0000 (  4740 PWs)   bands (ev):

   -34.7565 -29.5941 -29.5941 -17.1638 -17.1638  -9.9340  -9.4940  -4.1276
    -4.1276  -0.9751  -0.9751  -0.0376  -0.0376   2.5305   9.5458   9.5459

     the Fermi energy is     2.1561 ev

!    total energy              =     -31.38436152 Ry
     estimated scf accuracy    <          5.6E-09 Ry
     smearing contrib. (-TS)   =      -0.00023353 Ry
     internal energy E=F+TS    =     -31.38412798 Ry

     The total energy is F=E-TS. E is the sum of the following terms:
     one-electron contribution =   -1369.66087509 Ry
     hartree contribution      =     692.89489824 Ry
     xc contribution           =     -35.39479398 Ry
     ewald contribution        =     680.77664285 Ry

     convergence has been achieved in  20 iterations

     negative rho (up, down):  2.186E-03 0.000E+00

     Forces acting on atoms (cartesian axes, Ry/au):

     atom    1 type  1   force =    -0.00000000    0.00000000  -21.51713815
     atom    2 type  1   force =    -0.00000000    0.00000000  -21.51713815
     atom    3 type  1   force =     0.00000000    0.00000000   -0.00003956
     atom    4 type  1   force =     0.00000000    0.00000000   -0.00003956
     atom    5 type  1   force =     0.00000000    0.00000000   21.51717771
     atom    6 type  1   force =     0.00000000    0.00000000   21.51717771

     Total force =    43.034316     Total SCF correction =     0.000341


     Computing stress (Cartesian axis) and pressure


     negative rho (up, down):  2.186E-03 0.000E+00
          total   stress  (Ry/bohr**3)                   (kbar)     P=     8683.04
   0.01237937  -0.00000000   0.00000000         1821.07       -0.00        0.00
  -0.00000000   0.01237937  -0.00000000           -0.00     1821.07       -0.00
   0.00000000  -0.00000000   0.15231960            0.00       -0.00    22406.99


     Writing all to output data dir /home/rfa/Skripsi/DFT/dft-graphene/tmp/gr-aa-3L.save/ :
     XML data file, charge density, pseudopotentials, collected wavefunctions

     init_run     :      0.68s CPU      0.76s WALL (       1 calls)
     electrons    :     41.77s CPU     22.82s WALL (       1 calls)
     forces       :      0.17s CPU      0.09s WALL (       1 calls)
     stress       :      0.54s CPU      0.32s WALL (       1 calls)

     Called by init_run:
     wfcinit      :      0.37s CPU      0.24s WALL (       1 calls)
     potinit      :      0.01s CPU      0.01s WALL (       1 calls)
     hinit0       :      0.26s CPU      0.47s WALL (       1 calls)

     Called by electrons:
     c_bands      :     37.63s CPU     20.40s WALL (      20 calls)
     sum_band     :      3.57s CPU      1.94s WALL (      20 calls)
     v_of_rho     :      0.17s CPU      0.17s WALL (      21 calls)
     newd         :      0.23s CPU      0.20s WALL (      21 calls)
     mix_rho      :      0.15s CPU      0.09s WALL (      20 calls)

     Called by c_bands:
     init_us_2    :      0.77s CPU      0.40s WALL (     817 calls)
     cegterg      :     36.53s CPU     19.80s WALL (     380 calls)

     Called by *egterg:
     cdiaghg      :      2.60s CPU      1.35s WALL (    3420 calls)
     h_psi        :     26.35s CPU     14.53s WALL (    3439 calls)
     s_psi        :      1.05s CPU      0.56s WALL (    3439 calls)
     g_psi        :      0.25s CPU      0.13s WALL (    3040 calls)

     Called by h_psi:
     h_psi:calbec :      3.48s CPU      1.98s WALL (    3439 calls)
     vloc_psi     :     20.66s CPU     11.37s WALL (    3439 calls)
     add_vuspsi   :      1.88s CPU      0.99s WALL (    3439 calls)

     General routines
     calbec       :      4.07s CPU      2.30s WALL (    4142 calls)
     fft          :      0.31s CPU      0.52s WALL (     256 calls)
     ffts         :      0.01s CPU      0.01s WALL (      20 calls)
     fftw         :     19.58s CPU     10.84s WALL (   61806 calls)

     Parallel routines

     PWSCF        :     43.27s CPU     24.41s WALL


   This run was terminated on:  14:36:30  16Apr2025            

=------------------------------------------------------------------------------=
   JOB DONE.
=------------------------------------------------------------------------------=
