
     Program PWSCF v.7.4.1 starts on 16Apr2025 at 14:33:55 

     This program is part of the open-source Quantum ESPRESSO suite
     for quantum simulation of materials; please cite
         "P. Giannozzi et al., J. Phys.:Condens. Matter 21 395502 (2009);
         "P. Giannozzi et al., J. Phys.:Condens. Matter 29 465901 (2017);
         "P. Giannozzi et al., J. Chem. Phys. 152 154105 (2020);
          URL http://www.quantum-espresso.org", 
     in publications or presentations arising from this work. More details at
     http://www.quantum-espresso.org/quote

     Parallel version (MPI), running on     7 processors

     MPI processes distributed on     1 nodes
     13741 MiB available memory on the printing compute node when the environment starts

     Waiting for input...
     Reading input from standard input

     Current dimensions of program PWSCF are:
     Max number of different atomic species (ntypx) = 10
     Max number of k-points (npk) =  40000
     Max angular momentum in pseudopotentials (lmaxx) =  4

     R & G space division:  proc/nbgrp/npool/nimage =       7
     Subspace diagonalization in iterative solution of the eigenvalue problem:
     a serial algorithm will be used


     Parallelization info
     --------------------
     sticks:   dense  smooth     PW     G-vecs:    dense   smooth      PW
     Min          21      21      7                 1345     1345     271
     Max          22      22      8                 1372     1372     290
     Sum         151     151     55                 9519     9519    1981

     Using Slab Decomposition



     bravais-lattice index     =            4
     lattice parameter (alat)  =       4.6561  a.u.
     unit-cell volume          =     532.1899 (a.u.)^3
     number of atoms/cell      =            6
     number of atomic types    =            1
     number of electrons       =        24.00
     number of Kohn-Sham states=           16
     kinetic-energy cutoff     =      26.0000  Ry
     charge density cutoff     =     104.0000  Ry
     scf convergence threshold =      1.0E-08
     mixing beta               =       0.7000
     number of iterations used =            8  plain     mixing
     Exchange-correlation= PBE
                           (   1   4   3   4   0   0   0)

     celldm(1)=   4.656107  celldm(2)=   0.000000  celldm(3)=   6.087896
     celldm(4)=   0.000000  celldm(5)=   0.000000  celldm(6)=   0.000000

     crystal axes: (cart. coord. in units of alat)
               a(1) = (   1.000000   0.000000   0.000000 )  
               a(2) = (  -0.500000   0.866025   0.000000 )  
               a(3) = (   0.000000   0.000000   6.087896 )  

     reciprocal axes: (cart. coord. in units 2 pi/alat)
               b(1) = (  1.000000  0.577350 -0.000000 )  
               b(2) = (  0.000000  1.154701  0.000000 )  
               b(3) = (  0.000000 -0.000000  0.164260 )  


     PseudoPot. # 1 for C  read from file:
     /home/rfa/Skripsi/DFT/dft-graphene/pseudo/C.pbe-n-rrkjus_psl.0.1.UPF
     MD5 check sum: 96a6a315177d77e6c95bf6fd3870f9e3
     Pseudo is Ultrasoft + core correction, Zval =  4.0
     Generated using &quot;atomic&quot; code by A. Dal Corso  v.6.3MaX
     Using radial grid of 1073 points,  4 beta functions with: 
                l(1) =   0
                l(2) =   0
                l(3) =   1
                l(4) =   1
     Q(r) pseudized with 0 coefficients 


     atomic species   valence    mass     pseudopotential
     C                 4.00    12.01070     C ( 1.00)

     12 Sym. Ops. (no inversion) found



   Cartesian axes

     site n.     atom                  positions (alat units)
         1        C      tau(   1) = (   0.0000000   0.5773503   3.0439478  )
         2        C      tau(   2) = (   0.5000000   0.2886751   3.0439478  )
         3        C      tau(   3) = (   0.0000000   0.5773503   3.2468777  )
         4        C      tau(   4) = (   0.5000000   0.2886751   3.2468777  )
         5        C      tau(   5) = (   0.0000000   0.5773503   3.4498075  )
         6        C      tau(   6) = (   0.5000000   0.2886751   3.4498075  )

     number of k points=    19  Marzari-Vanderbilt smearing, width (Ry)=  0.0200
                       cart. coord. in units 2pi/alat
        k(    1) = (   0.0000000   0.0000000   0.0000000), wk =   0.0138889
        k(    2) = (   0.0000000   0.0962250   0.0000000), wk =   0.0833333
        k(    3) = (   0.0000000   0.1924501   0.0000000), wk =   0.0833333
        k(    4) = (   0.0000000   0.2886751   0.0000000), wk =   0.0833333
        k(    5) = (   0.0000000   0.3849002   0.0000000), wk =   0.0833333
        k(    6) = (   0.0000000   0.4811252   0.0000000), wk =   0.0833333
        k(    7) = (   0.0000000  -0.5773503   0.0000000), wk =   0.0416667
        k(    8) = (   0.0833333   0.1443376   0.0000000), wk =   0.0833333
        k(    9) = (   0.0833333   0.2405626   0.0000000), wk =   0.1666667
        k(   10) = (   0.0833333   0.3367877   0.0000000), wk =   0.1666667
        k(   11) = (   0.0833333   0.4330127   0.0000000), wk =   0.1666667
        k(   12) = (   0.0833333   0.5292377   0.0000000), wk =   0.1666667
        k(   13) = (   0.1666667   0.2886751   0.0000000), wk =   0.0833333
        k(   14) = (   0.1666667   0.3849002   0.0000000), wk =   0.1666667
        k(   15) = (   0.1666667   0.4811252   0.0000000), wk =   0.1666667
        k(   16) = (   0.1666667   0.5773503   0.0000000), wk =   0.0833333
        k(   17) = (   0.2500000   0.4330127   0.0000000), wk =   0.0833333
        k(   18) = (   0.2500000   0.5292377   0.0000000), wk =   0.1666667
        k(   19) = (   0.3333333   0.5773503   0.0000000), wk =   0.0277778

     Dense  grid:     9519 G-vectors     FFT dimensions: (  15,  15,  96)

     Estimated max dynamical RAM per process >       3.23 MB

     Estimated total dynamical RAM >      22.58 MB

     Check: negative core charge=   -0.000092

     Initial potential from superposition of free atoms

     starting charge      23.9998, renormalised to      24.0000

     negative rho (up, down):  8.041E-03 0.000E+00
     Starting wfcs are   24 randomized atomic wfcs

     total cpu time spent up to now is        0.5 secs

     per-process dynamical memory:     8.9 Mb

     Self-consistent Calculation

     iteration #  1     ecut=    26.00 Ry     beta= 0.70
     Davidson diagonalization with overlap
     ethr =  1.00E-02,  avg # of iterations =  7.1

     negative rho (up, down):  1.265E-01 0.000E+00

     total cpu time spent up to now is        0.8 secs

     total energy              =     -21.09950959 Ry
     estimated scf accuracy    <      19.97144360 Ry

     iteration #  2     ecut=    26.00 Ry     beta= 0.70
     Davidson diagonalization with overlap
     ethr =  1.00E-02,  avg # of iterations = 10.6

     negative rho (up, down):  4.509E-04 0.000E+00

     total cpu time spent up to now is        1.3 secs

     total energy              =      -5.45759377 Ry
     estimated scf accuracy    <      68.21289384 Ry

     iteration #  3     ecut=    26.00 Ry     beta= 0.70
     Davidson diagonalization with overlap
     c_bands:  3 eigenvalues not converged
     ethr =  1.00E-02,  avg # of iterations = 11.2

     negative rho (up, down):  2.236E-03 0.000E+00

     total cpu time spent up to now is        1.6 secs

     total energy              =     -28.35032704 Ry
     estimated scf accuracy    <       2.89767072 Ry

     iteration #  4     ecut=    26.00 Ry     beta= 0.70
     Davidson diagonalization with overlap
     ethr =  1.00E-02,  avg # of iterations =  1.6

     negative rho (up, down):  8.376E-03 0.000E+00

     total cpu time spent up to now is        1.7 secs

     total energy              =     -27.77251792 Ry
     estimated scf accuracy    <       1.76033249 Ry

     iteration #  5     ecut=    26.00 Ry     beta= 0.70
     Davidson diagonalization with overlap
     ethr =  7.33E-03,  avg # of iterations =  1.1

     negative rho (up, down):  9.392E-03 0.000E+00

     total cpu time spent up to now is        1.9 secs

     total energy              =     -27.76950763 Ry
     estimated scf accuracy    <       0.88908682 Ry

     iteration #  6     ecut=    26.00 Ry     beta= 0.70
     Davidson diagonalization with overlap
     ethr =  3.70E-03,  avg # of iterations =  1.1

     negative rho (up, down):  5.966E-03 0.000E+00

     total cpu time spent up to now is        2.0 secs

     total energy              =     -27.98204723 Ry
     estimated scf accuracy    <       0.83507172 Ry

     iteration #  7     ecut=    26.00 Ry     beta= 0.70
     Davidson diagonalization with overlap
     ethr =  3.48E-03,  avg # of iterations =  1.0

     negative rho (up, down):  4.836E-02 0.000E+00

     total cpu time spent up to now is        2.1 secs

     total energy              =     -27.22594754 Ry
     estimated scf accuracy    <       1.08897327 Ry

     iteration #  8     ecut=    26.00 Ry     beta= 0.70
     Davidson diagonalization with overlap
     ethr =  3.48E-03,  avg # of iterations =  2.8

     negative rho (up, down):  8.052E-02 0.000E+00

     total cpu time spent up to now is        2.3 secs

     total energy              =     -27.20039460 Ry
     estimated scf accuracy    <       0.14703527 Ry

     iteration #  9     ecut=    26.00 Ry     beta= 0.70
     Davidson diagonalization with overlap
     ethr =  6.13E-04,  avg # of iterations =  6.0

     negative rho (up, down):  8.522E-02 0.000E+00

     total cpu time spent up to now is        2.5 secs

     total energy              =     -27.20873804 Ry
     estimated scf accuracy    <       0.04134911 Ry

     iteration # 10     ecut=    26.00 Ry     beta= 0.70
     Davidson diagonalization with overlap
     ethr =  1.72E-04,  avg # of iterations =  2.3

     negative rho (up, down):  1.265E-01 0.000E+00

     total cpu time spent up to now is        2.6 secs

     total energy              =     -27.18791015 Ry
     estimated scf accuracy    <       0.03554902 Ry

     iteration # 11     ecut=    26.00 Ry     beta= 0.70
     Davidson diagonalization with overlap
     ethr =  1.48E-04,  avg # of iterations = 11.2

     negative rho (up, down):  1.532E-01 0.000E+00

     total cpu time spent up to now is        3.0 secs

     total energy              =     -27.20023650 Ry
     estimated scf accuracy    <       0.03338620 Ry

     iteration # 12     ecut=    26.00 Ry     beta= 0.70
     Davidson diagonalization with overlap
     ethr =  1.39E-04,  avg # of iterations =  7.7

     negative rho (up, down):  1.326E-01 0.000E+00

     total cpu time spent up to now is        3.2 secs

     total energy              =     -27.18413553 Ry
     estimated scf accuracy    <       0.11886940 Ry

     iteration # 13     ecut=    26.00 Ry     beta= 0.70
     Davidson diagonalization with overlap
     ethr =  1.39E-04,  avg # of iterations =  5.6

     negative rho (up, down):  1.318E-01 0.000E+00

     total cpu time spent up to now is        3.4 secs

     total energy              =     -27.20365722 Ry
     estimated scf accuracy    <       0.04753372 Ry

     iteration # 14     ecut=    26.00 Ry     beta= 0.70
     Davidson diagonalization with overlap
     ethr =  1.39E-04,  avg # of iterations =  1.1

     negative rho (up, down):  1.128E-01 0.000E+00

     total cpu time spent up to now is        3.6 secs

     total energy              =     -27.22095056 Ry
     estimated scf accuracy    <       0.05899787 Ry

     iteration # 15     ecut=    26.00 Ry     beta= 0.70
     Davidson diagonalization with overlap
     ethr =  1.39E-04,  avg # of iterations =  8.2

     negative rho (up, down):  1.165E-01 0.000E+00

     total cpu time spent up to now is        3.9 secs

     total energy              =     -27.17499425 Ry
     estimated scf accuracy    <       0.09129110 Ry

     iteration # 16     ecut=    26.00 Ry     beta= 0.70
     Davidson diagonalization with overlap
     ethr =  1.39E-04,  avg # of iterations =  4.9

     negative rho (up, down):  1.281E-01 0.000E+00

     total cpu time spent up to now is        4.1 secs

     total energy              =     -27.18357275 Ry
     estimated scf accuracy    <       0.01112504 Ry

     iteration # 17     ecut=    26.00 Ry     beta= 0.70
     Davidson diagonalization with overlap
     ethr =  4.64E-05,  avg # of iterations =  5.5

     negative rho (up, down):  1.269E-01 0.000E+00

     total cpu time spent up to now is        4.3 secs

     total energy              =     -27.18494507 Ry
     estimated scf accuracy    <       0.00436000 Ry

     iteration # 18     ecut=    26.00 Ry     beta= 0.70
     Davidson diagonalization with overlap
     ethr =  1.82E-05,  avg # of iterations =  2.1

     negative rho (up, down):  1.217E-01 0.000E+00

     total cpu time spent up to now is        4.5 secs

     total energy              =     -27.18747031 Ry
     estimated scf accuracy    <       0.00408606 Ry

     iteration # 19     ecut=    26.00 Ry     beta= 0.70
     Davidson diagonalization with overlap
     ethr =  1.70E-05,  avg # of iterations =  5.5

     negative rho (up, down):  1.128E-01 0.000E+00

     total cpu time spent up to now is        4.7 secs

     total energy              =     -27.19177374 Ry
     estimated scf accuracy    <       0.00694766 Ry

     iteration # 20     ecut=    26.00 Ry     beta= 0.70
     Davidson diagonalization with overlap
     ethr =  1.70E-05,  avg # of iterations =  6.9

     negative rho (up, down):  1.197E-01 0.000E+00

     total cpu time spent up to now is        4.9 secs

     total energy              =     -27.18757879 Ry
     estimated scf accuracy    <       0.01134282 Ry

     iteration # 21     ecut=    26.00 Ry     beta= 0.70
     Davidson diagonalization with overlap
     ethr =  1.70E-05,  avg # of iterations =  5.5

     negative rho (up, down):  1.428E-01 0.000E+00

     total cpu time spent up to now is        5.1 secs

     total energy              =     -27.18185506 Ry
     estimated scf accuracy    <       0.00638382 Ry

     iteration # 22     ecut=    26.00 Ry     beta= 0.70
     Davidson diagonalization with overlap
     ethr =  1.70E-05,  avg # of iterations = 11.5

     negative rho (up, down):  1.420E-01 0.000E+00

     total cpu time spent up to now is        5.4 secs

     total energy              =     -27.18218419 Ry
     estimated scf accuracy    <       0.00056477 Ry

     iteration # 23     ecut=    26.00 Ry     beta= 0.70
     Davidson diagonalization with overlap
     ethr =  2.35E-06,  avg # of iterations =  4.1

     negative rho (up, down):  1.421E-01 0.000E+00

     total cpu time spent up to now is        5.6 secs

     total energy              =     -27.18220037 Ry
     estimated scf accuracy    <       0.00013134 Ry

     iteration # 24     ecut=    26.00 Ry     beta= 0.70
     Davidson diagonalization with overlap
     ethr =  5.47E-07,  avg # of iterations =  1.7

     negative rho (up, down):  1.420E-01 0.000E+00

     total cpu time spent up to now is        5.7 secs

     total energy              =     -27.18218212 Ry
     estimated scf accuracy    <       0.00005691 Ry

     iteration # 25     ecut=    26.00 Ry     beta= 0.70
     Davidson diagonalization with overlap
     ethr =  2.37E-07,  avg # of iterations =  2.2

     negative rho (up, down):  1.419E-01 0.000E+00

     total cpu time spent up to now is        5.8 secs

     total energy              =     -27.18218930 Ry
     estimated scf accuracy    <       0.00000429 Ry

     iteration # 26     ecut=    26.00 Ry     beta= 0.70
     Davidson diagonalization with overlap
     ethr =  1.79E-08,  avg # of iterations =  5.3

     negative rho (up, down):  1.419E-01 0.000E+00

     total cpu time spent up to now is        6.1 secs

     total energy              =     -27.18219255 Ry
     estimated scf accuracy    <       0.00000643 Ry

     iteration # 27     ecut=    26.00 Ry     beta= 0.70
     Davidson diagonalization with overlap
     ethr =  1.79E-08,  avg # of iterations =  2.8

     negative rho (up, down):  1.419E-01 0.000E+00

     total cpu time spent up to now is        6.2 secs

     total energy              =     -27.18219399 Ry
     estimated scf accuracy    <       0.00000016 Ry

     iteration # 28     ecut=    26.00 Ry     beta= 0.70
     Davidson diagonalization with overlap
     ethr =  6.50E-10,  avg # of iterations =  4.5

     negative rho (up, down):  1.419E-01 0.000E+00

     total cpu time spent up to now is        6.4 secs

     total energy              =     -27.18219374 Ry
     estimated scf accuracy    <       0.00000011 Ry

     iteration # 29     ecut=    26.00 Ry     beta= 0.70
     Davidson diagonalization with overlap
     ethr =  4.63E-10,  avg # of iterations =  3.7

     negative rho (up, down):  1.419E-01 0.000E+00

     total cpu time spent up to now is        6.6 secs

     total energy              =     -27.18219390 Ry
     estimated scf accuracy    <       0.00000003 Ry

     iteration # 30     ecut=    26.00 Ry     beta= 0.70
     Davidson diagonalization with overlap
     ethr =  1.42E-10,  avg # of iterations =  2.2

     negative rho (up, down):  1.419E-01 0.000E+00

     total cpu time spent up to now is        6.7 secs

     End of self-consistent calculation

          k = 0.0000 0.0000 0.0000 (  1199 PWs)   bands (ev):

   -33.6855 -33.6855 -28.0153 -20.8020 -20.8020 -17.4684  -9.8306  -5.1914
    -5.0602  -5.0602  -1.0590   3.0005   3.4725   4.4845   5.9079   6.0874

          k = 0.0000 0.0962 0.0000 (  1187 PWs)   bands (ev):

   -33.8545 -33.7472 -28.4548 -20.4260 -19.7688 -17.0820  -9.4685  -5.5101
    -5.3052  -4.9629  -1.0673   3.2314   3.6932   4.7187   5.4751   6.2739

          k = 0.0000 0.1925 0.0000 (  1187 PWs)   bands (ev):

   -34.2844 -33.9844 -29.2172 -19.4320 -17.3237 -16.7233  -9.0863  -6.6568
    -5.9085  -4.7037  -1.1752   3.9125   4.0133   4.3543   5.3851   6.8532

          k = 0.0000 0.2887 0.0000 (  1183 PWs)   bands (ev):

   -34.8143 -34.4548 -29.6503 -18.1332 -15.9744 -14.1892  -8.2024  -8.0647
    -6.5987  -4.1924  -1.1400   2.4978   5.0536   5.4559   6.5009   7.8349

          k = 0.0000 0.3849 0.0000 (  1188 PWs)   bands (ev):

   -35.2889 -35.0226 -29.6939 -16.8260 -15.0814 -10.7351  -9.5771  -7.2043
    -7.0648  -3.6105  -1.3332   0.6547   5.6925   6.6368   6.9746   7.7176

          k = 0.0000 0.4811 0.0000 (  1198 PWs)   bands (ev):

   -35.6187 -35.4454 -29.7402 -15.7458 -13.8985 -11.1312  -7.6007  -7.5164
    -5.5841  -2.9457  -1.7408  -1.1560   2.2916   6.0952   8.7143   8.7656

          k = 0.0000-0.5774 0.0000 (  1194 PWs)   bands (ev):

   -35.7147 -35.5598 -29.7181 -15.1136 -12.8006 -12.4882  -7.7401  -6.0386
    -4.3829  -2.5581  -2.1386  -2.1098   0.1467   5.5802   9.4860  11.4375

          k = 0.0833 0.1443 0.0000 (  1189 PWs)   bands (ev):

   -34.2283 -33.8137 -29.0505 -19.7219 -18.0838 -16.8249  -9.1922  -6.2376
    -5.8052  -4.7661  -1.0742   3.6866   4.1341   4.5195   5.1646   6.6599

          k = 0.0833 0.2406 0.0000 (  1190 PWs)   bands (ev):

   -34.8666 -33.9674 -29.6407 -18.4884 -16.2470 -15.4416  -8.5414  -7.3882
    -6.5533  -4.3540  -0.9851   3.1828   4.5977   5.0165   6.0558   7.4492

          k = 0.0833 0.3368 0.0000 (  1184 PWs)   bands (ev):

   -35.5365 -34.2521 -29.8789 -17.1252 -15.4302 -12.1791  -8.7782  -7.5408
    -7.2517  -3.8000  -1.0598   1.5390   5.9561   6.3322   6.6709   7.4189

          k = 0.0833 0.4330 0.0000 (  1190 PWs)   bands (ev):

   -36.0672 -34.5813 -29.9371 -15.8718 -14.4205 -10.2787  -8.8703  -7.7781
    -6.2224  -3.1751  -1.3722  -0.2663   3.8120   6.2340   7.8042   8.0354

          k = 0.0833 0.5292 0.0000 (  1200 PWs)   bands (ev):

   -36.3555 -34.7934 -29.9458 -15.1496 -13.2602 -11.7924  -8.0574  -6.2634
    -4.5813  -2.6055  -1.8507  -1.7690   0.7424   5.0425   9.5510  10.0642

          k = 0.1667 0.2887 0.0000 (  1184 PWs)   bands (ev):

   -35.6571 -33.8460 -30.0551 -17.0361 -15.5361 -12.8181  -8.2782  -7.7312
    -7.5423  -3.8639  -0.9576   1.8644   5.7261   6.1155   6.7607   7.2750

          k = 0.1667 0.3849 0.0000 (  1178 PWs)   bands (ev):

   -36.3320 -33.8046 -30.3010 -15.6161 -14.6559  -9.7715  -9.4144  -8.3207
    -6.4587  -3.2475  -1.0210   0.4423   4.5370   6.2243   7.3383   7.6363

          k = 0.1667 0.4811 0.0000 (  1198 PWs)   bands (ev):

   -36.8013 -33.8902 -30.4807 -14.7531 -13.6775 -10.8399  -8.7820  -6.9031
    -5.0530  -2.6719  -1.3357  -1.1375   1.9063   4.0105   9.3621   9.4603

          k = 0.1667 0.5774 0.0000 (  1196 PWs)   bands (ev):

   -36.9632 -33.9004 -30.5247 -14.3569 -12.5123 -12.1149  -8.9307  -5.4347
    -3.6302  -2.2668  -2.0797  -1.6361  -0.1770   3.4522  10.3778  11.4536

          k = 0.2500 0.4330 0.0000 (  1180 PWs)   bands (ev):

   -36.9472 -33.3802 -30.8315 -14.4107 -13.7771 -10.1660  -9.4358  -7.2598
    -5.3104  -2.7009  -1.1251  -0.7540   2.7786   3.2319   9.1206   9.3145

          k = 0.2500 0.5292 0.0000 (  1200 PWs)   bands (ev):

   -37.2789 -33.0380 -31.2441 -13.6833 -12.7130 -11.3437  -9.9582  -5.1079
    -3.6317  -2.2722  -2.1764  -1.4983   0.1409   1.9184  10.8918  10.9233

          k = 0.3333 0.5774 0.0000 (  1212 PWs)   bands (ev):

   -37.4539 -32.1701 -32.1701 -13.4447 -11.8038 -11.8038 -10.7190  -3.5681
    -3.5681  -1.7687  -1.7687  -1.7110  -1.7110   1.0533  10.7987  11.5255

     the Fermi energy is     1.8031 ev

!    total energy              =     -27.18219390 Ry
     estimated scf accuracy    <          3.5E-10 Ry
     smearing contrib. (-TS)   =      -0.00079152 Ry
     internal energy E=F+TS    =     -27.18140237 Ry

     The total energy is F=E-TS. E is the sum of the following terms:
     one-electron contribution =   -1361.21546586 Ry
     hartree contribution      =     688.09125038 Ry
     xc contribution           =     -34.83382977 Ry
     ewald contribution        =     680.77664287 Ry

     convergence has been achieved in  30 iterations

     negative rho (up, down):  1.419E-01 0.000E+00

     Forces acting on atoms (cartesian axes, Ry/au):

     atom    1 type  1   force =     0.00000000    0.00000000  -27.71232696
     atom    2 type  1   force =     0.00000000    0.00000000  -27.71232696
     atom    3 type  1   force =     0.00000000    0.00000000   -0.00281930
     atom    4 type  1   force =     0.00000000   -0.00000000   -0.00281930
     atom    5 type  1   force =     0.00000000    0.00000000   27.71514626
     atom    6 type  1   force =     0.00000000    0.00000000   27.71514626

     Total force =    55.427473     Total SCF correction =     0.000106


     Computing stress (Cartesian axis) and pressure


     negative rho (up, down):  1.419E-01 0.000E+00
          total   stress  (Ry/bohr**3)                   (kbar)     P=     8855.36
   0.00275504  -0.00000000   0.00000000          405.28       -0.00        0.00
  -0.00000000   0.00275504  -0.00000000           -0.00      405.28       -0.00
   0.00000000  -0.00000000   0.17508254            0.00       -0.00    25755.53


     Writing all to output data dir /home/rfa/Skripsi/DFT/dft-graphene/tmp/gr-aa-3L.save/ :
     XML data file, charge density, pseudopotentials, collected wavefunctions

     init_run     :      0.34s CPU      0.40s WALL (       1 calls)
     electrons    :     11.16s CPU      6.26s WALL (       1 calls)
     forces       :      0.03s CPU      0.02s WALL (       1 calls)
     stress       :      0.10s CPU      0.06s WALL (       1 calls)

     Called by init_run:
     wfcinit      :      0.16s CPU      0.09s WALL (       1 calls)
     potinit      :      0.00s CPU      0.00s WALL (       1 calls)
     hinit0       :      0.16s CPU      0.29s WALL (       1 calls)

     Called by electrons:
     c_bands      :      9.82s CPU      5.49s WALL (      30 calls)
     sum_band     :      1.04s CPU      0.60s WALL (      30 calls)
     v_of_rho     :      0.11s CPU      0.07s WALL (      31 calls)
     newd         :      0.09s CPU      0.05s WALL (      31 calls)
     mix_rho      :      0.05s CPU      0.03s WALL (      30 calls)

     Called by c_bands:
     init_us_2    :      0.20s CPU      0.10s WALL (    1197 calls)
     cegterg      :      9.32s CPU      5.17s WALL (     570 calls)

     Called by *egterg:
     cdiaghg      :      2.37s CPU      1.25s WALL (    3361 calls)
     h_psi        :      5.50s CPU      3.11s WALL (    3380 calls)
     s_psi        :      0.18s CPU      0.09s WALL (    3380 calls)
     g_psi        :      0.06s CPU      0.03s WALL (    2791 calls)

     Called by h_psi:
     h_psi:calbec :      0.97s CPU      0.55s WALL (    3380 calls)
     vloc_psi     :      4.21s CPU      2.37s WALL (    3380 calls)
     add_vuspsi   :      0.22s CPU      0.13s WALL (    3380 calls)

     General routines
     calbec       :      1.13s CPU      0.64s WALL (    4273 calls)
     fft          :      0.19s CPU      0.30s WALL (     366 calls)
     ffts         :      0.01s CPU      0.00s WALL (      30 calls)
     fftw         :      4.09s CPU      2.29s WALL (   62768 calls)

     Parallel routines

     PWSCF        :     11.72s CPU      6.95s WALL


   This run was terminated on:  14:34: 2  16Apr2025            

=------------------------------------------------------------------------------=
   JOB DONE.
=------------------------------------------------------------------------------=
