
     Program PWSCF v.7.4.1 starts on 16Apr2025 at 14:33:49 

     This program is part of the open-source Quantum ESPRESSO suite
     for quantum simulation of materials; please cite
         "P. Giannozzi et al., J. Phys.:Condens. Matter 21 395502 (2009);
         "P. Giannozzi et al., J. Phys.:Condens. Matter 29 465901 (2017);
         "P. Giannozzi et al., J. Chem. Phys. 152 154105 (2020);
          URL http://www.quantum-espresso.org", 
     in publications or presentations arising from this work. More details at
     http://www.quantum-espresso.org/quote

     Parallel version (MPI), running on     7 processors

     MPI processes distributed on     1 nodes
     13735 MiB available memory on the printing compute node when the environment starts

     Waiting for input...
     Reading input from standard input

     Current dimensions of program PWSCF are:
     Max number of different atomic species (ntypx) = 10
     Max number of k-points (npk) =  40000
     Max angular momentum in pseudopotentials (lmaxx) =  4

     R & G space division:  proc/nbgrp/npool/nimage =       7
     Subspace diagonalization in iterative solution of the eigenvalue problem:
     a serial algorithm will be used


     Parallelization info
     --------------------
     sticks:   dense  smooth     PW     G-vecs:    dense   smooth      PW
     Min          21      21      7                 1209     1209     253
     Max          22      22      8                 1218     1218     266
     Sum         151     151     55                 8507     8507    1811

     Using Slab Decomposition



     bravais-lattice index     =            4
     lattice parameter (alat)  =       4.6561  a.u.
     unit-cell volume          =     532.1899 (a.u.)^3
     number of atoms/cell      =            6
     number of atomic types    =            1
     number of electrons       =        24.00
     number of Kohn-Sham states=           16
     kinetic-energy cutoff     =      24.0000  Ry
     charge density cutoff     =      96.0000  Ry
     scf convergence threshold =      1.0E-08
     mixing beta               =       0.7000
     number of iterations used =            8  plain     mixing
     Exchange-correlation= PBE
                           (   1   4   3   4   0   0   0)

     celldm(1)=   4.656107  celldm(2)=   0.000000  celldm(3)=   6.087896
     celldm(4)=   0.000000  celldm(5)=   0.000000  celldm(6)=   0.000000

     crystal axes: (cart. coord. in units of alat)
               a(1) = (   1.000000   0.000000   0.000000 )  
               a(2) = (  -0.500000   0.866025   0.000000 )  
               a(3) = (   0.000000   0.000000   6.087896 )  

     reciprocal axes: (cart. coord. in units 2 pi/alat)
               b(1) = (  1.000000  0.577350 -0.000000 )  
               b(2) = (  0.000000  1.154701  0.000000 )  
               b(3) = (  0.000000 -0.000000  0.164260 )  


     PseudoPot. # 1 for C  read from file:
     /home/rfa/Skripsi/DFT/dft-graphene/pseudo/C.pbe-n-rrkjus_psl.0.1.UPF
     MD5 check sum: 96a6a315177d77e6c95bf6fd3870f9e3
     Pseudo is Ultrasoft + core correction, Zval =  4.0
     Generated using &quot;atomic&quot; code by A. Dal Corso  v.6.3MaX
     Using radial grid of 1073 points,  4 beta functions with: 
                l(1) =   0
                l(2) =   0
                l(3) =   1
                l(4) =   1
     Q(r) pseudized with 0 coefficients 


     atomic species   valence    mass     pseudopotential
     C                 4.00    12.01070     C ( 1.00)

     12 Sym. Ops. (no inversion) found



   Cartesian axes

     site n.     atom                  positions (alat units)
         1        C      tau(   1) = (   0.0000000   0.5773503   3.0439478  )
         2        C      tau(   2) = (   0.5000000   0.2886751   3.0439478  )
         3        C      tau(   3) = (   0.0000000   0.5773503   3.2468777  )
         4        C      tau(   4) = (   0.5000000   0.2886751   3.2468777  )
         5        C      tau(   5) = (   0.0000000   0.5773503   3.4498075  )
         6        C      tau(   6) = (   0.5000000   0.2886751   3.4498075  )

     number of k points=    19  Marzari-Vanderbilt smearing, width (Ry)=  0.0200
                       cart. coord. in units 2pi/alat
        k(    1) = (   0.0000000   0.0000000   0.0000000), wk =   0.0138889
        k(    2) = (   0.0000000   0.0962250   0.0000000), wk =   0.0833333
        k(    3) = (   0.0000000   0.1924501   0.0000000), wk =   0.0833333
        k(    4) = (   0.0000000   0.2886751   0.0000000), wk =   0.0833333
        k(    5) = (   0.0000000   0.3849002   0.0000000), wk =   0.0833333
        k(    6) = (   0.0000000   0.4811252   0.0000000), wk =   0.0833333
        k(    7) = (   0.0000000  -0.5773503   0.0000000), wk =   0.0416667
        k(    8) = (   0.0833333   0.1443376   0.0000000), wk =   0.0833333
        k(    9) = (   0.0833333   0.2405626   0.0000000), wk =   0.1666667
        k(   10) = (   0.0833333   0.3367877   0.0000000), wk =   0.1666667
        k(   11) = (   0.0833333   0.4330127   0.0000000), wk =   0.1666667
        k(   12) = (   0.0833333   0.5292377   0.0000000), wk =   0.1666667
        k(   13) = (   0.1666667   0.2886751   0.0000000), wk =   0.0833333
        k(   14) = (   0.1666667   0.3849002   0.0000000), wk =   0.1666667
        k(   15) = (   0.1666667   0.4811252   0.0000000), wk =   0.1666667
        k(   16) = (   0.1666667   0.5773503   0.0000000), wk =   0.0833333
        k(   17) = (   0.2500000   0.4330127   0.0000000), wk =   0.0833333
        k(   18) = (   0.2500000   0.5292377   0.0000000), wk =   0.1666667
        k(   19) = (   0.3333333   0.5773503   0.0000000), wk =   0.0277778

     Dense  grid:     8507 G-vectors     FFT dimensions: (  15,  15,  90)

     Estimated max dynamical RAM per process >       2.88 MB

     Estimated total dynamical RAM >      20.17 MB

     Check: negative core charge=   -0.000158

     Initial potential from superposition of free atoms

     starting charge      23.9998, renormalised to      24.0000

     negative rho (up, down):  1.117E-02 0.000E+00
     Starting wfcs are   24 randomized atomic wfcs

     total cpu time spent up to now is        0.4 secs

     per-process dynamical memory:     8.7 Mb

     Self-consistent Calculation

     iteration #  1     ecut=    24.00 Ry     beta= 0.70
     Davidson diagonalization with overlap
     ethr =  1.00E-02,  avg # of iterations =  5.9

     negative rho (up, down):  1.656E-01 0.000E+00

     total cpu time spent up to now is        0.6 secs

     total energy              =     -20.44897408 Ry
     estimated scf accuracy    <      18.60900404 Ry

     iteration #  2     ecut=    24.00 Ry     beta= 0.70
     Davidson diagonalization with overlap
     ethr =  1.00E-02,  avg # of iterations = 10.4

     negative rho (up, down):  1.313E-03 0.000E+00

     total cpu time spent up to now is        1.0 secs

     total energy              =      -5.01796325 Ry
     estimated scf accuracy    <      68.08591541 Ry

     iteration #  3     ecut=    24.00 Ry     beta= 0.70
     Davidson diagonalization with overlap
     ethr =  1.00E-02,  avg # of iterations = 10.3

     negative rho (up, down):  7.801E-03 0.000E+00

     total cpu time spent up to now is        1.2 secs

     total energy              =     -27.34701378 Ry
     estimated scf accuracy    <       2.63298379 Ry

     iteration #  4     ecut=    24.00 Ry     beta= 0.70
     Davidson diagonalization with overlap
     ethr =  1.00E-02,  avg # of iterations =  1.6

     negative rho (up, down):  2.731E-02 0.000E+00

     total cpu time spent up to now is        1.4 secs

     total energy              =     -26.76131451 Ry
     estimated scf accuracy    <       1.61285495 Ry

     iteration #  5     ecut=    24.00 Ry     beta= 0.70
     Davidson diagonalization with overlap
     ethr =  6.72E-03,  avg # of iterations =  1.5

     negative rho (up, down):  2.069E-02 0.000E+00

     total cpu time spent up to now is        1.5 secs

     total energy              =     -26.93518970 Ry
     estimated scf accuracy    <       0.75773387 Ry

     iteration #  6     ecut=    24.00 Ry     beta= 0.70
     Davidson diagonalization with overlap
     ethr =  3.16E-03,  avg # of iterations =  1.5

     negative rho (up, down):  3.429E-02 0.000E+00

     total cpu time spent up to now is        1.6 secs

     total energy              =     -26.68813682 Ry
     estimated scf accuracy    <       0.92899826 Ry

     iteration #  7     ecut=    24.00 Ry     beta= 0.70
     Davidson diagonalization with overlap
     ethr =  3.16E-03,  avg # of iterations =  2.2

     negative rho (up, down):  1.332E-01 0.000E+00

     total cpu time spent up to now is        1.7 secs

     total energy              =     -26.21357435 Ry
     estimated scf accuracy    <       0.61077212 Ry

     iteration #  8     ecut=    24.00 Ry     beta= 0.70
     Davidson diagonalization with overlap
     ethr =  2.54E-03,  avg # of iterations =  4.3

     negative rho (up, down):  1.352E-01 0.000E+00

     total cpu time spent up to now is        1.9 secs

     total energy              =     -26.26079865 Ry
     estimated scf accuracy    <       0.03350661 Ry

     iteration #  9     ecut=    24.00 Ry     beta= 0.70
     Davidson diagonalization with overlap
     ethr =  1.40E-04,  avg # of iterations =  7.2

     negative rho (up, down):  1.373E-01 0.000E+00

     total cpu time spent up to now is        2.0 secs

     total energy              =     -26.26001260 Ry
     estimated scf accuracy    <       0.03011070 Ry

     iteration # 10     ecut=    24.00 Ry     beta= 0.70
     Davidson diagonalization with overlap
     ethr =  1.25E-04,  avg # of iterations =  1.0

     negative rho (up, down):  8.740E-02 0.000E+00

     total cpu time spent up to now is        2.1 secs

     total energy              =     -26.34430394 Ry
     estimated scf accuracy    <       0.02760774 Ry

     iteration # 11     ecut=    24.00 Ry     beta= 0.70
     Davidson diagonalization with overlap
     ethr =  1.15E-04,  avg # of iterations =  7.2

     negative rho (up, down):  1.863E-01 0.000E+00

     total cpu time spent up to now is        2.3 secs

     total energy              =     -26.24183393 Ry
     estimated scf accuracy    <       0.13028365 Ry

     iteration # 12     ecut=    24.00 Ry     beta= 0.70
     Davidson diagonalization with overlap
     ethr =  1.15E-04,  avg # of iterations = 12.2

     negative rho (up, down):  1.859E-01 0.000E+00

     total cpu time spent up to now is        2.6 secs

     total energy              =     -26.24859705 Ry
     estimated scf accuracy    <       0.02532892 Ry

     iteration # 13     ecut=    24.00 Ry     beta= 0.70
     Davidson diagonalization with overlap
     ethr =  1.06E-04,  avg # of iterations =  1.0

     negative rho (up, down):  1.849E-01 0.000E+00

     total cpu time spent up to now is        2.7 secs

     total energy              =     -26.24892084 Ry
     estimated scf accuracy    <       0.02714491 Ry

     iteration # 14     ecut=    24.00 Ry     beta= 0.70
     Davidson diagonalization with overlap
     ethr =  1.06E-04,  avg # of iterations =  1.0

     negative rho (up, down):  1.867E-01 0.000E+00

     total cpu time spent up to now is        2.8 secs

     total energy              =     -26.24295505 Ry
     estimated scf accuracy    <       0.02876500 Ry

     iteration # 15     ecut=    24.00 Ry     beta= 0.70
     Davidson diagonalization with overlap
     ethr =  1.06E-04,  avg # of iterations =  1.0

     negative rho (up, down):  1.866E-01 0.000E+00

     total cpu time spent up to now is        2.9 secs

     total energy              =     -26.24233752 Ry
     estimated scf accuracy    <       0.01509632 Ry

     iteration # 16     ecut=    24.00 Ry     beta= 0.70
     Davidson diagonalization with overlap
     ethr =  6.29E-05,  avg # of iterations =  1.0

     negative rho (up, down):  1.871E-01 0.000E+00

     total cpu time spent up to now is        3.0 secs

     total energy              =     -26.24114928 Ry
     estimated scf accuracy    <       0.01195779 Ry

     iteration # 17     ecut=    24.00 Ry     beta= 0.70
     Davidson diagonalization with overlap
     ethr =  4.98E-05,  avg # of iterations =  1.0

     negative rho (up, down):  1.903E-01 0.000E+00

     total cpu time spent up to now is        3.2 secs

     total energy              =     -26.23582843 Ry
     estimated scf accuracy    <       0.00826648 Ry

     iteration # 18     ecut=    24.00 Ry     beta= 0.70
     Davidson diagonalization with overlap
     ethr =  3.44E-05,  avg # of iterations =  6.1

     negative rho (up, down):  1.900E-01 0.000E+00

     total cpu time spent up to now is        3.4 secs

     total energy              =     -26.23870423 Ry
     estimated scf accuracy    <       0.00146927 Ry

     iteration # 19     ecut=    24.00 Ry     beta= 0.70
     Davidson diagonalization with overlap
     ethr =  6.12E-06,  avg # of iterations =  4.7

     negative rho (up, down):  1.902E-01 0.000E+00

     total cpu time spent up to now is        3.5 secs

     total energy              =     -26.23890591 Ry
     estimated scf accuracy    <       0.00011120 Ry

     iteration # 20     ecut=    24.00 Ry     beta= 0.70
     Davidson diagonalization with overlap
     ethr =  4.63E-07,  avg # of iterations =  3.3

     negative rho (up, down):  1.903E-01 0.000E+00

     total cpu time spent up to now is        3.7 secs

     total energy              =     -26.23892357 Ry
     estimated scf accuracy    <       0.00004298 Ry

     iteration # 21     ecut=    24.00 Ry     beta= 0.70
     Davidson diagonalization with overlap
     ethr =  1.79E-07,  avg # of iterations =  1.2

     negative rho (up, down):  1.903E-01 0.000E+00

     total cpu time spent up to now is        3.8 secs

     total energy              =     -26.23892930 Ry
     estimated scf accuracy    <       0.00003801 Ry

     iteration # 22     ecut=    24.00 Ry     beta= 0.70
     Davidson diagonalization with overlap
     ethr =  1.58E-07,  avg # of iterations =  1.2

     negative rho (up, down):  1.902E-01 0.000E+00

     total cpu time spent up to now is        3.9 secs

     total energy              =     -26.23891800 Ry
     estimated scf accuracy    <       0.00006134 Ry

     iteration # 23     ecut=    24.00 Ry     beta= 0.70
     Davidson diagonalization with overlap
     ethr =  1.58E-07,  avg # of iterations =  2.0

     negative rho (up, down):  1.902E-01 0.000E+00

     total cpu time spent up to now is        4.0 secs

     total energy              =     -26.23892660 Ry
     estimated scf accuracy    <       0.00002993 Ry

     iteration # 24     ecut=    24.00 Ry     beta= 0.70
     Davidson diagonalization with overlap
     ethr =  1.25E-07,  avg # of iterations =  1.0

     negative rho (up, down):  1.903E-01 0.000E+00

     total cpu time spent up to now is        4.1 secs

     total energy              =     -26.23891886 Ry
     estimated scf accuracy    <       0.00003165 Ry

     iteration # 25     ecut=    24.00 Ry     beta= 0.70
     Davidson diagonalization with overlap
     ethr =  1.25E-07,  avg # of iterations =  1.8

     negative rho (up, down):  1.901E-01 0.000E+00

     total cpu time spent up to now is        4.2 secs

     total energy              =     -26.23892446 Ry
     estimated scf accuracy    <       0.00002525 Ry

     iteration # 26     ecut=    24.00 Ry     beta= 0.70
     Davidson diagonalization with overlap
     ethr =  1.05E-07,  avg # of iterations =  3.1

     negative rho (up, down):  1.903E-01 0.000E+00

     total cpu time spent up to now is        4.4 secs

     total energy              =     -26.23889574 Ry
     estimated scf accuracy    <       0.00006838 Ry

     iteration # 27     ecut=    24.00 Ry     beta= 0.70
     Davidson diagonalization with overlap
     ethr =  1.05E-07,  avg # of iterations =  3.6

     negative rho (up, down):  1.902E-01 0.000E+00

     total cpu time spent up to now is        4.6 secs

     total energy              =     -26.23891519 Ry
     estimated scf accuracy    <       0.00000369 Ry

     iteration # 28     ecut=    24.00 Ry     beta= 0.70
     Davidson diagonalization with overlap
     ethr =  1.54E-08,  avg # of iterations =  2.2

     negative rho (up, down):  1.902E-01 0.000E+00

     total cpu time spent up to now is        4.7 secs

     total energy              =     -26.23891616 Ry
     estimated scf accuracy    <       0.00000027 Ry

     iteration # 29     ecut=    24.00 Ry     beta= 0.70
     Davidson diagonalization with overlap
     ethr =  1.14E-09,  avg # of iterations =  4.4

     negative rho (up, down):  1.902E-01 0.000E+00

     total cpu time spent up to now is        4.9 secs

     total energy              =     -26.23891625 Ry
     estimated scf accuracy    <       0.00000006 Ry

     iteration # 30     ecut=    24.00 Ry     beta= 0.70
     Davidson diagonalization with overlap
     ethr =  2.52E-10,  avg # of iterations =  2.3

     negative rho (up, down):  1.902E-01 0.000E+00

     total cpu time spent up to now is        5.0 secs

     End of self-consistent calculation

          k = 0.0000 0.0000 0.0000 (  1077 PWs)   bands (ev):

   -34.6614 -34.6614 -28.4268 -21.6153 -21.6153 -17.2941  -9.0741  -5.7025
    -5.6556  -5.6556  -1.7408   2.8104   3.2326   4.3371   5.8756   7.0544

          k = 0.0000 0.0962 0.0000 (  1089 PWs)   bands (ev):

   -34.8263 -34.7159 -28.9508 -21.2514 -20.5419 -17.2017  -9.1084  -6.1450
    -5.9447  -5.6675  -2.0591   3.0355   3.4516   4.5502   5.8893   6.0560

          k = 0.0000 0.1925 0.0000 (  1078 PWs)   bands (ev):

   -35.2428 -34.9043 -29.7147 -20.2586 -17.7691 -16.7492  -8.6946  -7.2205
    -6.5337  -5.3920  -1.8210   3.7181   4.1124   4.7842   5.2191   6.6268

          k = 0.0000 0.2887 0.0000 (  1064 PWs)   bands (ev):

   -35.7332 -35.2404 -30.1556 -18.5857 -16.0086 -14.5470  -8.5667  -7.8287
    -7.2029  -4.9076  -1.8020   3.0436   4.8586   5.2143   6.3355   7.6020

          k = 0.0000 0.3849 0.0000 (  1044 PWs)   bands (ev):

   -36.1585 -35.6212 -30.1827 -17.0430 -15.0029 -11.0643  -9.9628  -7.7891
    -6.3557  -4.2003  -1.9324   1.1158   5.3709   6.4519   6.7432   7.7665

          k = 0.0000 0.4811 0.0000 (  1052 PWs)   bands (ev):

   -36.4805 -36.1438 -30.1438 -16.3540 -13.9051 -11.3331  -8.1687  -7.8927
    -4.7623  -3.5513  -2.2535  -0.7550   2.1500   6.2550   8.5154   8.6076

          k = 0.0000-0.5774 0.0000 (  1062 PWs)   bands (ev):

   -36.5921 -36.3064 -30.1012 -16.0668 -12.7107 -12.6718  -8.3115  -6.1629
    -3.6854  -3.2454  -2.5486  -1.8445  -0.2804   5.6506   9.6334  10.9970

          k = 0.0833 0.1443 0.0000 (  1077 PWs)   bands (ev):

   -35.1767 -34.7682 -29.5527 -20.5032 -18.6402 -16.8300  -8.7297  -6.8129
    -6.4141  -5.4246  -1.7731   3.4923   3.8930   5.0012   5.3641   6.4417

          k = 0.0833 0.2406 0.0000 (  1065 PWs)   bands (ev):

   -35.7384 -34.8821 -30.1017 -19.2138 -16.3228 -15.6984  -8.1506  -7.9203
    -7.1372  -5.0672  -1.6376   3.9508   4.4033   4.7739   5.8894   7.2082

          k = 0.0833 0.3368 0.0000 (  1061 PWs)   bands (ev):

   -36.3345 -35.0781 -30.3708 -17.6976 -15.5330 -12.5927  -9.2661  -7.8298
    -7.1236  -4.5189  -1.8088   1.9371   5.7617   6.0912   6.3687   7.2428

          k = 0.0833 0.4330 0.0000 (  1047 PWs)   bands (ev):

   -36.8928 -35.2446 -30.4319 -16.1721 -14.3674 -10.6050  -9.3074  -8.3049
    -5.4051  -3.7707  -1.9627   0.1410   3.5761   6.3940   7.6071   7.8157

          k = 0.0833 0.5292 0.0000 (  1043 PWs)   bands (ev):

   -37.1894 -35.4590 -30.2587 -15.6508 -13.2191 -11.8958  -8.5661  -6.4381
    -3.7972  -3.2114  -2.2960  -1.4444   0.5801   5.1691   9.6018   9.8662

          k = 0.1667 0.2887 0.0000 (  1057 PWs)   bands (ev):

   -36.4501 -34.7485 -30.5159 -17.9088 -15.6940 -13.1676  -8.7577  -8.0793
    -7.1109  -4.5335  -1.6144   2.5116   5.5359   5.8771   6.5289   7.0783

          k = 0.1667 0.3849 0.0000 (  1060 PWs)   bands (ev):

   -37.1770 -34.6144 -30.9059 -16.3919 -14.6592 -10.3957  -9.8314  -8.8109
    -5.7113  -3.8945  -1.6724   0.9291   4.1995   6.2858   7.1425   7.4027

          k = 0.1667 0.4811 0.0000 (  1048 PWs)   bands (ev):

   -37.6394 -34.5365 -30.9734 -15.1436 -13.6105 -11.0509  -9.2058  -7.3933
    -4.3147  -3.3001  -1.9085  -0.7698   1.7908   4.1406   9.1680   9.2705

          k = 0.1667 0.5774 0.0000 (  1040 PWs)   bands (ev):

   -37.8032 -34.4305 -30.9466 -14.3793 -12.4023 -12.2967  -9.3362  -5.6043
    -2.9391  -2.8757  -2.1493  -1.7836  -0.4440   3.5652  10.4528  11.2975

          k = 0.2500 0.4330 0.0000 (  1052 PWs)   bands (ev):

   -37.7942 -34.0467 -31.3966 -14.8311 -13.7361 -10.3435  -9.8847  -7.8478
    -4.6087  -3.3758  -1.7162  -0.4144   2.4761   3.5029   8.9274   9.0922

          k = 0.2500 0.5292 0.0000 (  1041 PWs)   bands (ev):

   -38.1159 -33.5466 -31.7404 -13.6336 -12.6275 -11.3839 -10.3060  -5.4289
    -2.9309  -2.8135  -2.0309  -2.0167   0.2388   1.7848  10.6951  10.8408

          k = 0.3333 0.5774 0.0000 (  1050 PWs)   bands (ev):

   -38.2796 -32.6878 -32.6878 -13.3159 -11.7092 -11.7092 -11.2188  -3.6844
    -3.6844  -2.3933  -2.3933  -1.2958  -1.2958   0.6382  10.5682  11.5443

     the Fermi energy is     1.8689 ev

!    total energy              =     -26.23891630 Ry
     estimated scf accuracy    <          3.8E-09 Ry
     smearing contrib. (-TS)   =      -0.00146416 Ry
     internal energy E=F+TS    =     -26.23745214 Ry

     The total energy is F=E-TS. E is the sum of the following terms:
     one-electron contribution =   -1358.91283910 Ry
     hartree contribution      =     686.49651660 Ry
     xc contribution           =     -34.59777251 Ry
     ewald contribution        =     680.77664287 Ry

     convergence has been achieved in  30 iterations

     negative rho (up, down):  1.902E-01 0.000E+00

     Forces acting on atoms (cartesian axes, Ry/au):

     atom    1 type  1   force =     0.00000000    0.00000000  -27.93802356
     atom    2 type  1   force =     0.00000000    0.00000000  -27.93802356
     atom    3 type  1   force =     0.00000000    0.00000000   -0.00000105
     atom    4 type  1   force =     0.00000000   -0.00000000   -0.00000105
     atom    5 type  1   force =    -0.00000000    0.00000000   27.93802462
     atom    6 type  1   force =    -0.00000000    0.00000000   27.93802462

     Total force =    55.876048     Total SCF correction =     0.000391


     Computing stress (Cartesian axis) and pressure


     negative rho (up, down):  1.902E-01 0.000E+00
          total   stress  (Ry/bohr**3)                   (kbar)     P=     8421.57
  -0.00183084   0.00000000   0.00000000         -269.33        0.00        0.00
   0.00000000  -0.00183084   0.00000000            0.00     -269.33        0.00
   0.00000000   0.00000000   0.17540759            0.00        0.00    25803.35


     Writing all to output data dir /home/rfa/Skripsi/DFT/dft-graphene/tmp/gr-aa-3L.save/ :
     XML data file, charge density, pseudopotentials, collected wavefunctions

     init_run     :      0.23s CPU      0.32s WALL (       1 calls)
     electrons    :      8.05s CPU      4.58s WALL (       1 calls)
     forces       :      0.03s CPU      0.02s WALL (       1 calls)
     stress       :      0.09s CPU      0.05s WALL (       1 calls)

     Called by init_run:
     wfcinit      :      0.10s CPU      0.06s WALL (       1 calls)
     potinit      :      0.00s CPU      0.00s WALL (       1 calls)
     hinit0       :      0.12s CPU      0.24s WALL (       1 calls)

     Called by electrons:
     c_bands      :      6.91s CPU      3.92s WALL (      30 calls)
     sum_band     :      0.90s CPU      0.52s WALL (      30 calls)
     v_of_rho     :      0.10s CPU      0.06s WALL (      31 calls)
     newd         :      0.07s CPU      0.05s WALL (      31 calls)
     mix_rho      :      0.04s CPU      0.02s WALL (      30 calls)

     Called by c_bands:
     init_us_2    :      0.18s CPU      0.09s WALL (    1197 calls)
     cegterg      :      6.48s CPU      3.64s WALL (     570 calls)

     Called by *egterg:
     cdiaghg      :      1.64s CPU      0.87s WALL (    2604 calls)
     h_psi        :      3.94s CPU      2.28s WALL (    2623 calls)
     s_psi        :      0.14s CPU      0.07s WALL (    2623 calls)
     g_psi        :      0.04s CPU      0.02s WALL (    2034 calls)

     Called by h_psi:
     h_psi:calbec :      0.46s CPU      0.27s WALL (    2623 calls)
     vloc_psi     :      3.23s CPU      1.87s WALL (    2623 calls)
     add_vuspsi   :      0.17s CPU      0.09s WALL (    2623 calls)

     General routines
     calbec       :      0.58s CPU      0.33s WALL (    3516 calls)
     fft          :      0.14s CPU      0.25s WALL (     366 calls)
     ffts         :      0.00s CPU      0.00s WALL (      30 calls)
     fftw         :      3.20s CPU      1.83s WALL (   58362 calls)

     Parallel routines

     PWSCF        :      8.49s CPU      5.16s WALL


   This run was terminated on:  14:33:54  16Apr2025            

=------------------------------------------------------------------------------=
   JOB DONE.
=------------------------------------------------------------------------------=
