
     Program PWSCF v.7.4.1 starts on 16Apr2025 at 14:34:57 

     This program is part of the open-source Quantum ESPRESSO suite
     for quantum simulation of materials; please cite
         "P. Giannozzi et al., J. Phys.:Condens. Matter 21 395502 (2009);
         "P. Giannozzi et al., J. Phys.:Condens. Matter 29 465901 (2017);
         "P. Giannozzi et al., J. Chem. Phys. 152 154105 (2020);
          URL http://www.quantum-espresso.org", 
     in publications or presentations arising from this work. More details at
     http://www.quantum-espresso.org/quote

     Parallel version (MPI), running on     7 processors

     MPI processes distributed on     1 nodes
     13717 MiB available memory on the printing compute node when the environment starts

     Waiting for input...
     Reading input from standard input

     Current dimensions of program PWSCF are:
     Max number of different atomic species (ntypx) = 10
     Max number of k-points (npk) =  40000
     Max angular momentum in pseudopotentials (lmaxx) =  4

     R & G space division:  proc/nbgrp/npool/nimage =       7
     Subspace diagonalization in iterative solution of the eigenvalue problem:
     a serial algorithm will be used


     Parallelization info
     --------------------
     sticks:   dense  smooth     PW     G-vecs:    dense   smooth      PW
     Min          43      43     13                 3639     3639     639
     Max          43      43     13                 3649     3649     655
     Sum         301     301     91                25507    25507    4493

     Using Slab Decomposition



     bravais-lattice index     =            4
     lattice parameter (alat)  =       4.6561  a.u.
     unit-cell volume          =     532.1899 (a.u.)^3
     number of atoms/cell      =            6
     number of atomic types    =            1
     number of electrons       =        24.00
     number of Kohn-Sham states=           16
     kinetic-energy cutoff     =      50.0000  Ry
     charge density cutoff     =     200.0000  Ry
     scf convergence threshold =      1.0E-08
     mixing beta               =       0.7000
     number of iterations used =            8  plain     mixing
     Exchange-correlation= PBE
                           (   1   4   3   4   0   0   0)

     celldm(1)=   4.656107  celldm(2)=   0.000000  celldm(3)=   6.087896
     celldm(4)=   0.000000  celldm(5)=   0.000000  celldm(6)=   0.000000

     crystal axes: (cart. coord. in units of alat)
               a(1) = (   1.000000   0.000000   0.000000 )  
               a(2) = (  -0.500000   0.866025   0.000000 )  
               a(3) = (   0.000000   0.000000   6.087896 )  

     reciprocal axes: (cart. coord. in units 2 pi/alat)
               b(1) = (  1.000000  0.577350 -0.000000 )  
               b(2) = (  0.000000  1.154701  0.000000 )  
               b(3) = (  0.000000 -0.000000  0.164260 )  


     PseudoPot. # 1 for C  read from file:
     /home/rfa/Skripsi/DFT/dft-graphene/pseudo/C.pbe-n-rrkjus_psl.0.1.UPF
     MD5 check sum: 96a6a315177d77e6c95bf6fd3870f9e3
     Pseudo is Ultrasoft + core correction, Zval =  4.0
     Generated using &quot;atomic&quot; code by A. Dal Corso  v.6.3MaX
     Using radial grid of 1073 points,  4 beta functions with: 
                l(1) =   0
                l(2) =   0
                l(3) =   1
                l(4) =   1
     Q(r) pseudized with 0 coefficients 


     atomic species   valence    mass     pseudopotential
     C                 4.00    12.01070     C ( 1.00)

     12 Sym. Ops. (no inversion) found



   Cartesian axes

     site n.     atom                  positions (alat units)
         1        C      tau(   1) = (   0.0000000   0.5773503   3.0439478  )
         2        C      tau(   2) = (   0.5000000   0.2886751   3.0439478  )
         3        C      tau(   3) = (   0.0000000   0.5773503   3.2468777  )
         4        C      tau(   4) = (   0.5000000   0.2886751   3.2468777  )
         5        C      tau(   5) = (   0.0000000   0.5773503   3.4498075  )
         6        C      tau(   6) = (   0.5000000   0.2886751   3.4498075  )

     number of k points=    19  Marzari-Vanderbilt smearing, width (Ry)=  0.0200
                       cart. coord. in units 2pi/alat
        k(    1) = (   0.0000000   0.0000000   0.0000000), wk =   0.0138889
        k(    2) = (   0.0000000   0.0962250   0.0000000), wk =   0.0833333
        k(    3) = (   0.0000000   0.1924501   0.0000000), wk =   0.0833333
        k(    4) = (   0.0000000   0.2886751   0.0000000), wk =   0.0833333
        k(    5) = (   0.0000000   0.3849002   0.0000000), wk =   0.0833333
        k(    6) = (   0.0000000   0.4811252   0.0000000), wk =   0.0833333
        k(    7) = (   0.0000000  -0.5773503   0.0000000), wk =   0.0416667
        k(    8) = (   0.0833333   0.1443376   0.0000000), wk =   0.0833333
        k(    9) = (   0.0833333   0.2405626   0.0000000), wk =   0.1666667
        k(   10) = (   0.0833333   0.3367877   0.0000000), wk =   0.1666667
        k(   11) = (   0.0833333   0.4330127   0.0000000), wk =   0.1666667
        k(   12) = (   0.0833333   0.5292377   0.0000000), wk =   0.1666667
        k(   13) = (   0.1666667   0.2886751   0.0000000), wk =   0.0833333
        k(   14) = (   0.1666667   0.3849002   0.0000000), wk =   0.1666667
        k(   15) = (   0.1666667   0.4811252   0.0000000), wk =   0.1666667
        k(   16) = (   0.1666667   0.5773503   0.0000000), wk =   0.0833333
        k(   17) = (   0.2500000   0.4330127   0.0000000), wk =   0.0833333
        k(   18) = (   0.2500000   0.5292377   0.0000000), wk =   0.1666667
        k(   19) = (   0.3333333   0.5773503   0.0000000), wk =   0.0277778

     Dense  grid:    25507 G-vectors     FFT dimensions: (  24,  24, 128)

     Estimated max dynamical RAM per process >       8.45 MB

     Estimated total dynamical RAM >      59.17 MB

     Check: negative core charge=   -0.000007

     Initial potential from superposition of free atoms

     starting charge      23.9998, renormalised to      24.0000

     negative rho (up, down):  4.474E-04 0.000E+00
     Starting wfcs are   24 randomized atomic wfcs

     total cpu time spent up to now is        0.8 secs

     per-process dynamical memory:    12.0 Mb

     Self-consistent Calculation

     iteration #  1     ecut=    50.00 Ry     beta= 0.70
     Davidson diagonalization with overlap
     ethr =  1.00E-02,  avg # of iterations = 10.0

     negative rho (up, down):  4.057E-03 0.000E+00

     total cpu time spent up to now is        1.9 secs

     total energy              =     -23.73215476 Ry
     estimated scf accuracy    <      24.80864241 Ry

     iteration #  2     ecut=    50.00 Ry     beta= 0.70
     Davidson diagonalization with overlap
     c_bands:  2 eigenvalues not converged
     c_bands:  1 eigenvalues not converged
     c_bands:  2 eigenvalues not converged
     ethr =  1.00E-02,  avg # of iterations = 15.2

     total cpu time spent up to now is        3.2 secs

     total energy              =     -16.37177125 Ry
     estimated scf accuracy    <      38.47963964 Ry

     iteration #  3     ecut=    50.00 Ry     beta= 0.70
     Davidson diagonalization with overlap
     c_bands:  1 eigenvalues not converged
     c_bands:  2 eigenvalues not converged
     c_bands:  2 eigenvalues not converged
     ethr =  1.00E-02,  avg # of iterations = 12.9

     total cpu time spent up to now is        4.2 secs

     total energy              =     -31.89122258 Ry
     estimated scf accuracy    <       2.91923166 Ry

     iteration #  4     ecut=    50.00 Ry     beta= 0.70
     Davidson diagonalization with overlap
     ethr =  1.00E-02,  avg # of iterations =  1.8

     total cpu time spent up to now is        4.6 secs

     total energy              =     -31.19072677 Ry
     estimated scf accuracy    <       1.46139638 Ry

     iteration #  5     ecut=    50.00 Ry     beta= 0.70
     Davidson diagonalization with overlap
     ethr =  6.09E-03,  avg # of iterations =  1.8

     total cpu time spent up to now is        5.0 secs

     total energy              =     -31.22780086 Ry
     estimated scf accuracy    <       0.36411115 Ry

     iteration #  6     ecut=    50.00 Ry     beta= 0.70
     Davidson diagonalization with overlap
     ethr =  1.52E-03,  avg # of iterations =  6.2

     total cpu time spent up to now is        5.6 secs

     total energy              =     -31.29330910 Ry
     estimated scf accuracy    <       0.22513586 Ry

     iteration #  7     ecut=    50.00 Ry     beta= 0.70
     Davidson diagonalization with overlap
     ethr =  9.38E-04,  avg # of iterations =  2.4

     total cpu time spent up to now is        5.9 secs

     total energy              =     -31.17566449 Ry
     estimated scf accuracy    <       0.22056555 Ry

     iteration #  8     ecut=    50.00 Ry     beta= 0.70
     Davidson diagonalization with overlap
     c_bands:  1 eigenvalues not converged
     ethr =  9.19E-04,  avg # of iterations =  4.7

     negative rho (up, down):  7.898E-03 0.000E+00

     total cpu time spent up to now is        6.4 secs

     total energy              =     -31.17136177 Ry
     estimated scf accuracy    <       0.03860326 Ry

     iteration #  9     ecut=    50.00 Ry     beta= 0.70
     Davidson diagonalization with overlap
     c_bands:  2 eigenvalues not converged
     c_bands:  2 eigenvalues not converged
     c_bands:  1 eigenvalues not converged
     c_bands:  2 eigenvalues not converged
     c_bands:  1 eigenvalues not converged
     c_bands:  1 eigenvalues not converged
     c_bands:  1 eigenvalues not converged
     c_bands:  4 eigenvalues not converged
     c_bands:  1 eigenvalues not converged
     c_bands:  1 eigenvalues not converged
     c_bands:  1 eigenvalues not converged
     c_bands:  1 eigenvalues not converged
     ethr =  1.61E-04,  avg # of iterations = 17.8

     negative rho (up, down):  1.641E-02 0.000E+00

     total cpu time spent up to now is        7.6 secs

     total energy              =     -31.20255006 Ry
     estimated scf accuracy    <       0.05250419 Ry

     iteration # 10     ecut=    50.00 Ry     beta= 0.70
     Davidson diagonalization with overlap
     ethr =  1.61E-04,  avg # of iterations =  4.1

     negative rho (up, down):  1.810E-03 0.000E+00

     total cpu time spent up to now is        8.1 secs

     total energy              =     -31.19552117 Ry
     estimated scf accuracy    <       0.02759645 Ry

     iteration # 11     ecut=    50.00 Ry     beta= 0.70
     Davidson diagonalization with overlap
     ethr =  1.15E-04,  avg # of iterations =  6.9

     negative rho (up, down):  3.726E-03 0.000E+00

     total cpu time spent up to now is        8.6 secs

     total energy              =     -31.19741968 Ry
     estimated scf accuracy    <       0.00956247 Ry

     iteration # 12     ecut=    50.00 Ry     beta= 0.70
     Davidson diagonalization with overlap
     ethr =  3.98E-05,  avg # of iterations =  4.0

     negative rho (up, down):  3.710E-03 0.000E+00

     total cpu time spent up to now is        9.1 secs

     total energy              =     -31.19633785 Ry
     estimated scf accuracy    <       0.00807188 Ry

     iteration # 13     ecut=    50.00 Ry     beta= 0.70
     Davidson diagonalization with overlap
     ethr =  3.36E-05,  avg # of iterations =  2.1

     negative rho (up, down):  3.614E-03 0.000E+00

     total cpu time spent up to now is        9.5 secs

     total energy              =     -31.19497868 Ry
     estimated scf accuracy    <       0.00422477 Ry

     iteration # 14     ecut=    50.00 Ry     beta= 0.70
     Davidson diagonalization with overlap
     c_bands:  1 eigenvalues not converged
     c_bands:  1 eigenvalues not converged
     c_bands:  1 eigenvalues not converged
     c_bands:  1 eigenvalues not converged
     ethr =  1.76E-05,  avg # of iterations = 11.7

     negative rho (up, down):  3.740E-03 0.000E+00

     total cpu time spent up to now is       10.2 secs

     total energy              =     -31.19617430 Ry
     estimated scf accuracy    <       0.00019687 Ry

     iteration # 15     ecut=    50.00 Ry     beta= 0.70
     Davidson diagonalization with overlap
     c_bands:  1 eigenvalues not converged
     c_bands:  1 eigenvalues not converged
     c_bands:  1 eigenvalues not converged
     c_bands:  1 eigenvalues not converged
     ethr =  8.20E-07,  avg # of iterations = 13.9

     negative rho (up, down):  3.757E-03 0.000E+00

     total cpu time spent up to now is       11.4 secs

     total energy              =     -31.19651788 Ry
     estimated scf accuracy    <       0.00001501 Ry

     iteration # 16     ecut=    50.00 Ry     beta= 0.70
     Davidson diagonalization with overlap
     ethr =  6.26E-08,  avg # of iterations =  6.9

     negative rho (up, down):  3.761E-03 0.000E+00

     total cpu time spent up to now is       12.2 secs

     total energy              =     -31.19653606 Ry
     estimated scf accuracy    <       0.00000468 Ry

     iteration # 17     ecut=    50.00 Ry     beta= 0.70
     Davidson diagonalization with overlap
     ethr =  1.95E-08,  avg # of iterations =  3.8

     negative rho (up, down):  3.785E-03 0.000E+00

     total cpu time spent up to now is       12.7 secs

     total energy              =     -31.19653631 Ry
     estimated scf accuracy    <       0.00000189 Ry

     iteration # 18     ecut=    50.00 Ry     beta= 0.70
     Davidson diagonalization with overlap
     ethr =  7.87E-09,  avg # of iterations =  6.1

     negative rho (up, down):  3.788E-03 0.000E+00

     total cpu time spent up to now is       13.4 secs

     total energy              =     -31.19653743 Ry
     estimated scf accuracy    <       0.00000284 Ry

     iteration # 19     ecut=    50.00 Ry     beta= 0.70
     Davidson diagonalization with overlap
     ethr =  7.87E-09,  avg # of iterations =  1.3

     negative rho (up, down):  3.794E-03 0.000E+00

     total cpu time spent up to now is       13.8 secs

     total energy              =     -31.19653723 Ry
     estimated scf accuracy    <       0.00000096 Ry

     iteration # 20     ecut=    50.00 Ry     beta= 0.70
     Davidson diagonalization with overlap
     ethr =  4.00E-09,  avg # of iterations =  3.7

     negative rho (up, down):  3.791E-03 0.000E+00

     total cpu time spent up to now is       14.2 secs

     total energy              =     -31.19653744 Ry
     estimated scf accuracy    <       0.00000012 Ry

     iteration # 21     ecut=    50.00 Ry     beta= 0.70
     Davidson diagonalization with overlap
     ethr =  5.04E-10,  avg # of iterations =  6.1

     negative rho (up, down):  3.793E-03 0.000E+00

     total cpu time spent up to now is       15.0 secs

     total energy              =     -31.19653751 Ry
     estimated scf accuracy    <       0.00000007 Ry

     iteration # 22     ecut=    50.00 Ry     beta= 0.70
     Davidson diagonalization with overlap
     c_bands:  1 eigenvalues not converged
     ethr =  2.80E-10,  avg # of iterations =  5.9

     negative rho (up, down):  3.792E-03 0.000E+00

     total cpu time spent up to now is       15.6 secs

     total energy              =     -31.19653754 Ry
     estimated scf accuracy    <       0.00000001 Ry

     iteration # 23     ecut=    50.00 Ry     beta= 0.70
     Davidson diagonalization with overlap
     c_bands:  1 eigenvalues not converged
     ethr =  4.18E-11,  avg # of iterations =  6.8

     negative rho (up, down):  3.792E-03 0.000E+00

     total cpu time spent up to now is       16.3 secs

     End of self-consistent calculation

          k = 0.0000 0.0000 0.0000 (  3135 PWs)   bands (ev):

   -30.8264 -30.8264 -26.4813 -21.9476 -18.0030 -18.0030 -10.2901  -8.4767
    -4.4785  -3.6289  -3.6289   4.2662   5.0067   5.5319   6.2370   7.9802

          k = 0.0000 0.0962 0.0000 (  3173 PWs)   bands (ev):

   -31.0096 -30.9152 -26.8374 -21.8267 -17.6213 -17.1003 -10.1265  -9.0490
    -4.3941  -3.8871  -3.3411   3.9286   5.2333   5.7423   6.4596   8.0440

          k = 0.0000 0.1925 0.0000 (  3183 PWs)   bands (ev):

   -31.4701 -31.2456 -27.4075 -21.4328 -16.5922 -14.8382 -10.3473  -9.6340
    -4.5152  -4.1960  -2.7762   2.9833   5.9124   6.3703   7.1253   8.2350

          k = 0.0000 0.2887 0.0000 (  3177 PWs)   bands (ev):

   -32.0254 -31.8409 -27.6448 -20.8041 -15.2019 -11.9655 -11.8529  -8.8231
    -5.2412  -3.9771  -2.2548   1.5719   7.0370   7.3673   8.2111   8.5014

          k = 0.0000 0.3849 0.0000 (  3189 PWs)   bands (ev):

   -32.5187 -32.4895 -27.5775 -19.9479 -13.7942 -13.6093  -8.6557  -7.5791
    -5.8645  -3.8249  -1.8040  -0.1055   6.9808   7.9736   8.5077   9.1402

          k = 0.0000 0.4811 0.0000 (  3207 PWs)   bands (ev):

   -32.9564 -32.8492 -27.4288 -19.0015 -15.0764 -12.7345  -6.8718  -6.2735
    -4.7307  -3.7712  -1.7177  -1.4425   3.8049   7.3097   7.6857  10.7112

          k = 0.0000-0.5774 0.0000 (  3208 PWs)   bands (ev):

   -33.1223 -32.9646 -27.3618 -18.3948 -15.8426 -12.3359  -6.4144  -6.1891
    -3.7654  -2.6156  -2.3704  -1.2883   1.5439   6.7827   7.5142  12.5445

          k = 0.0833 0.1443 0.0000 (  3191 PWs)   bands (ev):

   -31.4271 -31.0175 -27.2937 -21.5678 -16.8895 -15.5588  -9.9757  -9.7976
    -4.6223  -3.9734  -2.9237   3.2919   5.6860   6.1614   6.9037   8.1755

          k = 0.0833 0.2406 0.0000 (  3176 PWs)   bands (ev):

   -32.1237 -31.2451 -27.6962 -21.0511 -15.6254 -13.0292 -11.3333  -9.1467
    -5.4194  -3.6655  -2.3774   2.1360   6.5877   6.9872   7.7808   8.4866

          k = 0.0833 0.3368 0.0000 (  3174 PWs)   bands (ev):

   -32.8500 -31.6091 -27.7944 -20.3056 -14.1670 -12.8852  -9.9795  -8.1636
    -6.2187  -3.3393  -1.9105   0.6207   7.7856   8.0132   8.1461   8.8541

          k = 0.0833 0.4330 0.0000 (  3188 PWs)   bands (ev):

   -33.4247 -31.9609 -27.6987 -19.3828 -14.4167 -12.8768  -7.4226  -6.8180
    -6.2054  -3.1176  -1.5332  -1.0276   5.2581   7.4568   8.0187   9.8052

          k = 0.0833 0.5292 0.0000 (  3187 PWs)   bands (ev):

   -33.7361 -32.1668 -27.5953 -18.4892 -15.6258 -12.1094  -7.1312  -6.2573
    -3.1425  -3.0222  -2.3518  -1.2861   2.2413   6.3000   7.7182  11.9017

          k = 0.1667 0.2887 0.0000 (  3165 PWs)   bands (ev):

   -32.9690 -31.1836 -27.9923 -20.4034 -14.2000 -12.5900 -10.5530  -8.3350
    -6.5556  -3.0158  -1.8791   0.9085   7.6362   7.9685   8.2249   9.0324

          k = 0.1667 0.3849 0.0000 (  3167 PWs)   bands (ev):

   -33.6944 -31.1986 -28.1447 -19.5635 -13.9340 -12.7291  -7.9180  -7.5223
    -6.9909  -2.4411  -1.4717  -0.5464   5.9285   7.5414   8.7093   9.3218

          k = 0.1667 0.4811 0.0000 (  3169 PWs)   bands (ev):

   -34.1703 -31.2642 -28.1625 -18.6198 -15.2234 -11.6156  -8.1441  -6.3920
    -4.2335  -2.0362  -2.0113  -1.2276   3.4353   5.3566   8.3355  10.8074

          k = 0.1667 0.5774 0.0000 (  3186 PWs)   bands (ev):

   -34.3352 -31.2993 -28.1509 -18.0064 -15.9632 -11.1973  -8.3563  -5.6673
    -2.8613  -2.0653  -1.8946  -1.1431   1.3314   4.7572   8.1403  11.3456

          k = 0.2500 0.4330 0.0000 (  3157 PWs)   bands (ev):

   -34.3192 -30.7763 -28.5512 -18.6659 -15.0221 -11.3370  -8.5732  -6.4626
    -4.7313  -1.8306  -1.7045  -1.1211   4.2206   4.6699   9.1544   9.7237

          k = 0.2500 0.5292 0.0000 (  3158 PWs)   bands (ev):

   -34.6468 -30.4721 -28.8483 -17.7591 -16.0344 -10.4733  -9.1451  -5.2894
    -3.0523  -2.1393  -1.2304  -1.0003   1.7645   3.3494   8.9209  10.2817

          k = 0.3333 0.5774 0.0000 (  3171 PWs)   bands (ev):

   -34.8100 -29.6452 -29.6452 -16.8921 -16.8921  -9.9998  -9.5159  -4.1452
    -4.1452  -0.9334  -0.9334  -0.0849  -0.0849   2.5098   9.6204   9.6204

     the Fermi energy is     2.1298 ev

!    total energy              =     -31.19653755 Ry
     estimated scf accuracy    <          4.2E-10 Ry
     smearing contrib. (-TS)   =      -0.00022095 Ry
     internal energy E=F+TS    =     -31.19631660 Ry

     The total energy is F=E-TS. E is the sum of the following terms:
     one-electron contribution =   -1369.35198607 Ry
     hartree contribution      =     692.75483208 Ry
     xc contribution           =     -35.37580447 Ry
     ewald contribution        =     680.77664186 Ry

     convergence has been achieved in  23 iterations

     negative rho (up, down):  3.792E-03 0.000E+00

     Forces acting on atoms (cartesian axes, Ry/au):

     atom    1 type  1   force =     0.00000000    0.00000000  -22.07232342
     atom    2 type  1   force =    -0.00000000   -0.00000000  -22.07232342
     atom    3 type  1   force =    -0.00000000   -0.00000000   -0.00101212
     atom    4 type  1   force =    -0.00000000   -0.00000000   -0.00101212
     atom    5 type  1   force =     0.00000000   -0.00000000   22.07333554
     atom    6 type  1   force =     0.00000000   -0.00000000   22.07333554

     Total force =    44.145659     Total SCF correction =     0.000076


     Computing stress (Cartesian axis) and pressure


     negative rho (up, down):  3.792E-03 0.000E+00
          total   stress  (Ry/bohr**3)                   (kbar)     P=     8644.78
   0.01181293   0.00000000  -0.00000000         1737.74        0.00       -0.00
   0.00000000   0.01181293   0.00000000            0.00     1737.74        0.00
  -0.00000000   0.00000000   0.15267210           -0.00        0.00    22458.84


     Writing all to output data dir /home/rfa/Skripsi/DFT/dft-graphene/tmp/gr-aa-3L.save/ :
     XML data file, charge density, pseudopotentials, collected wavefunctions

     init_run     :      0.60s CPU      0.70s WALL (       1 calls)
     electrons    :     29.29s CPU     15.50s WALL (       1 calls)
     forces       :      0.08s CPU      0.05s WALL (       1 calls)
     stress       :      0.26s CPU      0.16s WALL (       1 calls)

     Called by init_run:
     wfcinit      :      0.35s CPU      0.21s WALL (       1 calls)
     potinit      :      0.01s CPU      0.01s WALL (       1 calls)
     hinit0       :      0.21s CPU      0.45s WALL (       1 calls)

     Called by electrons:
     c_bands      :     25.96s CPU     13.62s WALL (      23 calls)
     sum_band     :      2.84s CPU      1.51s WALL (      23 calls)
     v_of_rho     :      0.20s CPU      0.16s WALL (      24 calls)
     newd         :      0.16s CPU      0.14s WALL (      24 calls)
     mix_rho      :      0.11s CPU      0.06s WALL (      23 calls)

     Called by c_bands:
     init_us_2    :      0.47s CPU      0.25s WALL (     931 calls)
     cegterg      :     25.10s CPU     13.12s WALL (     437 calls)

     Called by *egterg:
     cdiaghg      :      2.51s CPU      1.30s WALL (    3405 calls)
     h_psi        :     18.42s CPU      9.64s WALL (    3424 calls)
     s_psi        :      0.51s CPU      0.26s WALL (    3424 calls)
     g_psi        :      0.16s CPU      0.08s WALL (    2968 calls)

     Called by h_psi:
     h_psi:calbec :      2.39s CPU      1.30s WALL (    3424 calls)
     vloc_psi     :     14.80s CPU      7.70s WALL (    3424 calls)
     add_vuspsi   :      0.97s CPU      0.49s WALL (    3424 calls)

     General routines
     calbec       :      2.79s CPU      1.51s WALL (    4184 calls)
     fft          :      0.25s CPU      0.49s WALL (     289 calls)
     ffts         :      0.01s CPU      0.01s WALL (      23 calls)
     fftw         :     14.00s CPU      7.26s WALL (   59944 calls)

     Parallel routines

     PWSCF        :     30.33s CPU     16.73s WALL


   This run was terminated on:  14:35:13  16Apr2025            

=------------------------------------------------------------------------------=
   JOB DONE.
=------------------------------------------------------------------------------=
