
     Program PWSCF v.7.4.1 starts on 16Apr2025 at 14:34:43 

     This program is part of the open-source Quantum ESPRESSO suite
     for quantum simulation of materials; please cite
         "P. Giannozzi et al., J. Phys.:Condens. Matter 21 395502 (2009);
         "P. Giannozzi et al., J. Phys.:Condens. Matter 29 465901 (2017);
         "P. Giannozzi et al., J. Chem. Phys. 152 154105 (2020);
          URL http://www.quantum-espresso.org", 
     in publications or presentations arising from this work. More details at
     http://www.quantum-espresso.org/quote

     Parallel version (MPI), running on     7 processors

     MPI processes distributed on     1 nodes
     13745 MiB available memory on the printing compute node when the environment starts

     Waiting for input...
     Reading input from standard input

     Current dimensions of program PWSCF are:
     Max number of different atomic species (ntypx) = 10
     Max number of k-points (npk) =  40000
     Max angular momentum in pseudopotentials (lmaxx) =  4

     R & G space division:  proc/nbgrp/npool/nimage =       7
     Subspace diagonalization in iterative solution of the eigenvalue problem:
     a serial algorithm will be used


     Parallelization info
     --------------------
     sticks:   dense  smooth     PW     G-vecs:    dense   smooth      PW
     Min          37      37     12                 3088     3088     566
     Max          38      38     13                 3095     3095     589
     Sum         265     265     85                21637    21637    3993

     Using Slab Decomposition



     bravais-lattice index     =            4
     lattice parameter (alat)  =       4.6561  a.u.
     unit-cell volume          =     532.1899 (a.u.)^3
     number of atoms/cell      =            6
     number of atomic types    =            1
     number of electrons       =        24.00
     number of Kohn-Sham states=           16
     kinetic-energy cutoff     =      45.0000  Ry
     charge density cutoff     =     180.0000  Ry
     scf convergence threshold =      1.0E-08
     mixing beta               =       0.7000
     number of iterations used =            8  plain     mixing
     Exchange-correlation= PBE
                           (   1   4   3   4   0   0   0)

     celldm(1)=   4.656107  celldm(2)=   0.000000  celldm(3)=   6.087896
     celldm(4)=   0.000000  celldm(5)=   0.000000  celldm(6)=   0.000000

     crystal axes: (cart. coord. in units of alat)
               a(1) = (   1.000000   0.000000   0.000000 )  
               a(2) = (  -0.500000   0.866025   0.000000 )  
               a(3) = (   0.000000   0.000000   6.087896 )  

     reciprocal axes: (cart. coord. in units 2 pi/alat)
               b(1) = (  1.000000  0.577350 -0.000000 )  
               b(2) = (  0.000000  1.154701  0.000000 )  
               b(3) = (  0.000000 -0.000000  0.164260 )  


     PseudoPot. # 1 for C  read from file:
     /home/rfa/Skripsi/DFT/dft-graphene/pseudo/C.pbe-n-rrkjus_psl.0.1.UPF
     MD5 check sum: 96a6a315177d77e6c95bf6fd3870f9e3
     Pseudo is Ultrasoft + core correction, Zval =  4.0
     Generated using &quot;atomic&quot; code by A. Dal Corso  v.6.3MaX
     Using radial grid of 1073 points,  4 beta functions with: 
                l(1) =   0
                l(2) =   0
                l(3) =   1
                l(4) =   1
     Q(r) pseudized with 0 coefficients 


     atomic species   valence    mass     pseudopotential
     C                 4.00    12.01070     C ( 1.00)

     12 Sym. Ops. (no inversion) found



   Cartesian axes

     site n.     atom                  positions (alat units)
         1        C      tau(   1) = (   0.0000000   0.5773503   3.0439478  )
         2        C      tau(   2) = (   0.5000000   0.2886751   3.0439478  )
         3        C      tau(   3) = (   0.0000000   0.5773503   3.2468777  )
         4        C      tau(   4) = (   0.5000000   0.2886751   3.2468777  )
         5        C      tau(   5) = (   0.0000000   0.5773503   3.4498075  )
         6        C      tau(   6) = (   0.5000000   0.2886751   3.4498075  )

     number of k points=    19  Marzari-Vanderbilt smearing, width (Ry)=  0.0200
                       cart. coord. in units 2pi/alat
        k(    1) = (   0.0000000   0.0000000   0.0000000), wk =   0.0138889
        k(    2) = (   0.0000000   0.0962250   0.0000000), wk =   0.0833333
        k(    3) = (   0.0000000   0.1924501   0.0000000), wk =   0.0833333
        k(    4) = (   0.0000000   0.2886751   0.0000000), wk =   0.0833333
        k(    5) = (   0.0000000   0.3849002   0.0000000), wk =   0.0833333
        k(    6) = (   0.0000000   0.4811252   0.0000000), wk =   0.0833333
        k(    7) = (   0.0000000  -0.5773503   0.0000000), wk =   0.0416667
        k(    8) = (   0.0833333   0.1443376   0.0000000), wk =   0.0833333
        k(    9) = (   0.0833333   0.2405626   0.0000000), wk =   0.1666667
        k(   10) = (   0.0833333   0.3367877   0.0000000), wk =   0.1666667
        k(   11) = (   0.0833333   0.4330127   0.0000000), wk =   0.1666667
        k(   12) = (   0.0833333   0.5292377   0.0000000), wk =   0.1666667
        k(   13) = (   0.1666667   0.2886751   0.0000000), wk =   0.0833333
        k(   14) = (   0.1666667   0.3849002   0.0000000), wk =   0.1666667
        k(   15) = (   0.1666667   0.4811252   0.0000000), wk =   0.1666667
        k(   16) = (   0.1666667   0.5773503   0.0000000), wk =   0.0833333
        k(   17) = (   0.2500000   0.4330127   0.0000000), wk =   0.0833333
        k(   18) = (   0.2500000   0.5292377   0.0000000), wk =   0.1666667
        k(   19) = (   0.3333333   0.5773503   0.0000000), wk =   0.0277778

     Dense  grid:    21637 G-vectors     FFT dimensions: (  20,  20, 125)

     Estimated max dynamical RAM per process >       7.08 MB

     Estimated total dynamical RAM >      49.54 MB

     Check: negative core charge=   -0.000016

     Initial potential from superposition of free atoms

     starting charge      23.9998, renormalised to      24.0000

     negative rho (up, down):  3.178E-04 0.000E+00
     Starting wfcs are   24 randomized atomic wfcs

     total cpu time spent up to now is        0.6 secs

     per-process dynamical memory:    11.0 Mb

     Self-consistent Calculation

     iteration #  1     ecut=    45.00 Ry     beta= 0.70
     Davidson diagonalization with overlap
     ethr =  1.00E-02,  avg # of iterations =  9.8

     negative rho (up, down):  2.764E-03 0.000E+00

     total cpu time spent up to now is        1.3 secs

     total energy              =     -23.57282444 Ry
     estimated scf accuracy    <      24.68112806 Ry

     iteration #  2     ecut=    45.00 Ry     beta= 0.70
     Davidson diagonalization with overlap
     c_bands:  3 eigenvalues not converged
     c_bands:  2 eigenvalues not converged
     c_bands:  1 eigenvalues not converged
     ethr =  1.00E-02,  avg # of iterations = 15.6

     total cpu time spent up to now is        2.2 secs

     total energy              =     -14.29892860 Ry
     estimated scf accuracy    <      44.55927332 Ry

     iteration #  3     ecut=    45.00 Ry     beta= 0.70
     Davidson diagonalization with overlap
     c_bands:  1 eigenvalues not converged
     ethr =  1.00E-02,  avg # of iterations = 12.5

     total cpu time spent up to now is        3.0 secs

     total energy              =     -31.82920628 Ry
     estimated scf accuracy    <       3.03811260 Ry

     iteration #  4     ecut=    45.00 Ry     beta= 0.70
     Davidson diagonalization with overlap
     ethr =  1.00E-02,  avg # of iterations =  1.9

     total cpu time spent up to now is        3.2 secs

     total energy              =     -31.13247028 Ry
     estimated scf accuracy    <       1.60001362 Ry

     iteration #  5     ecut=    45.00 Ry     beta= 0.70
     Davidson diagonalization with overlap
     ethr =  6.67E-03,  avg # of iterations =  1.8

     total cpu time spent up to now is        3.5 secs

     total energy              =     -31.08283444 Ry
     estimated scf accuracy    <       0.52877385 Ry

     iteration #  6     ecut=    45.00 Ry     beta= 0.70
     Davidson diagonalization with overlap
     ethr =  2.20E-03,  avg # of iterations =  3.5

     total cpu time spent up to now is        3.8 secs

     total energy              =     -31.11695394 Ry
     estimated scf accuracy    <       0.31680824 Ry

     iteration #  7     ecut=    45.00 Ry     beta= 0.70
     Davidson diagonalization with overlap
     ethr =  1.32E-03,  avg # of iterations =  2.4

     total cpu time spent up to now is        4.1 secs

     total energy              =     -31.02623645 Ry
     estimated scf accuracy    <       0.29368298 Ry

     iteration #  8     ecut=    45.00 Ry     beta= 0.70
     Davidson diagonalization with overlap
     ethr =  1.22E-03,  avg # of iterations =  2.6

     total cpu time spent up to now is        4.3 secs

     total energy              =     -31.18010431 Ry
     estimated scf accuracy    <       0.13815470 Ry

     iteration #  9     ecut=    45.00 Ry     beta= 0.70
     Davidson diagonalization with overlap
     c_bands:  2 eigenvalues not converged
     ethr =  5.76E-04,  avg # of iterations =  4.4

     total cpu time spent up to now is        4.6 secs

     total energy              =     -31.34505857 Ry
     estimated scf accuracy    <       0.33389837 Ry

     iteration # 10     ecut=    45.00 Ry     beta= 0.70
     Davidson diagonalization with overlap
     ethr =  5.76E-04,  avg # of iterations =  3.9

     negative rho (up, down):  1.072E-04 0.000E+00

     total cpu time spent up to now is        4.9 secs

     total energy              =     -30.96290172 Ry
     estimated scf accuracy    <       0.66329781 Ry

     iteration # 11     ecut=    45.00 Ry     beta= 0.70
     Davidson diagonalization with overlap
     ethr =  5.76E-04,  avg # of iterations =  7.2

     negative rho (up, down):  4.726E-03 0.000E+00

     total cpu time spent up to now is        5.3 secs

     total energy              =     -30.97980891 Ry
     estimated scf accuracy    <       0.05244276 Ry

     iteration # 12     ecut=    45.00 Ry     beta= 0.70
     Davidson diagonalization with overlap
     c_bands:  2 eigenvalues not converged
     ethr =  2.19E-04,  avg # of iterations = 10.2

     negative rho (up, down):  4.568E-03 0.000E+00

     total cpu time spent up to now is        5.8 secs

     total energy              =     -31.00119524 Ry
     estimated scf accuracy    <       0.00707586 Ry

     iteration # 13     ecut=    45.00 Ry     beta= 0.70
     Davidson diagonalization with overlap
     c_bands:  1 eigenvalues not converged
     c_bands:  2 eigenvalues not converged
     ethr =  2.95E-05,  avg # of iterations =  9.3

     negative rho (up, down):  5.050E-03 0.000E+00

     total cpu time spent up to now is        6.3 secs

     total energy              =     -30.98880337 Ry
     estimated scf accuracy    <       0.03151152 Ry

     iteration # 14     ecut=    45.00 Ry     beta= 0.70
     Davidson diagonalization with overlap
     c_bands:  1 eigenvalues not converged
     c_bands:  1 eigenvalues not converged
     c_bands:  1 eigenvalues not converged
     c_bands:  1 eigenvalues not converged
     ethr =  2.95E-05,  avg # of iterations = 12.4

     negative rho (up, down):  4.952E-03 0.000E+00

     total cpu time spent up to now is        6.8 secs

     total energy              =     -30.99204031 Ry
     estimated scf accuracy    <       0.00094322 Ry

     iteration # 15     ecut=    45.00 Ry     beta= 0.70
     Davidson diagonalization with overlap
     c_bands:  2 eigenvalues not converged
     c_bands:  1 eigenvalues not converged
     c_bands:  1 eigenvalues not converged
     c_bands:  1 eigenvalues not converged
     c_bands:  2 eigenvalues not converged
     ethr =  3.93E-06,  avg # of iterations = 16.0

     negative rho (up, down):  4.882E-03 0.000E+00

     total cpu time spent up to now is        7.7 secs

     total energy              =     -30.99281050 Ry
     estimated scf accuracy    <       0.00130861 Ry

     iteration # 16     ecut=    45.00 Ry     beta= 0.70
     Davidson diagonalization with overlap
     ethr =  3.93E-06,  avg # of iterations =  2.4

     negative rho (up, down):  4.916E-03 0.000E+00

     total cpu time spent up to now is        7.9 secs

     total energy              =     -30.99263207 Ry
     estimated scf accuracy    <       0.00066977 Ry

     iteration # 17     ecut=    45.00 Ry     beta= 0.70
     Davidson diagonalization with overlap
     ethr =  2.79E-06,  avg # of iterations =  7.4

     negative rho (up, down):  4.904E-03 0.000E+00

     total cpu time spent up to now is        8.3 secs

     total energy              =     -30.99258560 Ry
     estimated scf accuracy    <       0.00019158 Ry

     iteration # 18     ecut=    45.00 Ry     beta= 0.70
     Davidson diagonalization with overlap
     c_bands:  1 eigenvalues not converged
     ethr =  7.98E-07,  avg # of iterations =  6.4

     negative rho (up, down):  4.829E-03 0.000E+00

     total cpu time spent up to now is        8.7 secs

     total energy              =     -30.99264478 Ry
     estimated scf accuracy    <       0.00000327 Ry

     iteration # 19     ecut=    45.00 Ry     beta= 0.70
     Davidson diagonalization with overlap
     c_bands:  1 eigenvalues not converged
     c_bands:  1 eigenvalues not converged
     ethr =  1.36E-08,  avg # of iterations = 13.2

     negative rho (up, down):  4.830E-03 0.000E+00

     total cpu time spent up to now is        9.6 secs

     total energy              =     -30.99266656 Ry
     estimated scf accuracy    <       0.00000996 Ry

     iteration # 20     ecut=    45.00 Ry     beta= 0.70
     Davidson diagonalization with overlap
     ethr =  1.36E-08,  avg # of iterations =  2.1

     negative rho (up, down):  4.838E-03 0.000E+00

     total cpu time spent up to now is        9.8 secs

     total energy              =     -30.99266453 Ry
     estimated scf accuracy    <       0.00001124 Ry

     iteration # 21     ecut=    45.00 Ry     beta= 0.70
     Davidson diagonalization with overlap
     ethr =  1.36E-08,  avg # of iterations =  1.0

     negative rho (up, down):  4.822E-03 0.000E+00

     total cpu time spent up to now is       10.0 secs

     total energy              =     -30.99266106 Ry
     estimated scf accuracy    <       0.00000646 Ry

     iteration # 22     ecut=    45.00 Ry     beta= 0.70
     Davidson diagonalization with overlap
     ethr =  1.36E-08,  avg # of iterations =  4.9

     negative rho (up, down):  4.823E-03 0.000E+00

     total cpu time spent up to now is       10.4 secs

     total energy              =     -30.99266295 Ry
     estimated scf accuracy    <       0.00000026 Ry

     iteration # 23     ecut=    45.00 Ry     beta= 0.70
     Davidson diagonalization with overlap
     ethr =  1.08E-09,  avg # of iterations =  5.5

     negative rho (up, down):  4.822E-03 0.000E+00

     total cpu time spent up to now is       10.9 secs

     total energy              =     -30.99266311 Ry
     estimated scf accuracy    <       0.00000022 Ry

     iteration # 24     ecut=    45.00 Ry     beta= 0.70
     Davidson diagonalization with overlap
     ethr =  9.21E-10,  avg # of iterations =  1.9

     negative rho (up, down):  4.828E-03 0.000E+00

     total cpu time spent up to now is       11.2 secs

     total energy              =     -30.99266310 Ry
     estimated scf accuracy    <       0.00000012 Ry

     iteration # 25     ecut=    45.00 Ry     beta= 0.70
     Davidson diagonalization with overlap
     ethr =  5.20E-10,  avg # of iterations =  1.4

     negative rho (up, down):  4.828E-03 0.000E+00

     total cpu time spent up to now is       11.4 secs

     total energy              =     -30.99266309 Ry
     estimated scf accuracy    <       0.00000006 Ry

     iteration # 26     ecut=    45.00 Ry     beta= 0.70
     Davidson diagonalization with overlap
     ethr =  2.34E-10,  avg # of iterations =  3.5

     negative rho (up, down):  4.828E-03 0.000E+00

     total cpu time spent up to now is       11.7 secs

     total energy              =     -30.99266311 Ry
     estimated scf accuracy    <       0.00000001 Ry

     iteration # 27     ecut=    45.00 Ry     beta= 0.70
     Davidson diagonalization with overlap
     ethr =  4.45E-11,  avg # of iterations =  5.0

     negative rho (up, down):  4.828E-03 0.000E+00

     total cpu time spent up to now is       12.1 secs

     End of self-consistent calculation

          k = 0.0000 0.0000 0.0000 (  2629 PWs)   bands (ev):

   -30.9046 -30.9046 -26.5272 -21.6619 -18.0845 -18.0845 -10.3104  -7.7857
    -4.4406  -3.6652  -3.6652   4.2468   4.7536   5.3048   6.0301   8.3748

          k = 0.0000 0.0962 0.0000 (  2663 PWs)   bands (ev):

   -31.0881 -30.9950 -26.8865 -21.5420 -17.7022 -17.1760 -10.1471  -8.4841
    -4.3570  -3.9240  -3.3208   3.9056   4.9808   5.5181   6.2528   7.8931

          k = 0.0000 0.1925 0.0000 (  2691 PWs)   bands (ev):

   -31.5491 -31.3236 -27.4624 -21.2065 -16.6762 -14.9102  -9.9382  -9.6574
    -4.5523  -4.1631  -2.7157   2.9602   5.6618   6.1562   6.9190   8.1559

          k = 0.0000 0.2887 0.0000 (  2687 PWs)   bands (ev):

   -32.1038 -31.9164 -27.7057 -20.5145 -15.2865 -11.9182 -11.5725  -8.8446
    -5.2787  -3.8844  -2.1796   1.5490   6.7920   7.1879   8.0081   8.4566

          k = 0.0000 0.3849 0.0000 (  2706 PWs)   bands (ev):

   -32.5970 -32.5628 -27.6424 -19.6585 -13.8823 -13.2739  -8.7054  -7.6175
    -5.9018  -3.6945  -1.7620  -0.1275   6.9464   7.9735   8.3140   8.9693

          k = 0.0000 0.4811 0.0000 (  2702 PWs)   bands (ev):

   -33.0281 -32.9260 -27.4965 -18.6647 -14.7275 -12.8232  -6.8896  -6.3100
    -4.7961  -3.5937  -1.7403  -1.4080   3.7674   7.2637   7.7237  10.4672

          k = 0.0000-0.5774 0.0000 (  2716 PWs)   bands (ev):

   -33.1949 -33.0415 -27.4292 -18.1027 -15.5429 -12.4281  -6.4512  -6.2067
    -3.5777  -2.6377  -2.4421  -1.2868   1.5103   6.7364   7.5570  12.5295

          k = 0.0833 0.1443 0.0000 (  2687 PWs)   bands (ev):

   -31.5053 -31.0969 -27.3468 -21.3093 -16.9726 -15.6309  -9.8192  -9.4984
    -4.6323  -3.9718  -2.8569   3.2671   5.4349   5.9440   6.6972   8.0807

          k = 0.0833 0.2406 0.0000 (  2698 PWs)   bands (ev):

   -32.2003 -31.3241 -27.7554 -20.7883 -15.7097 -13.0971 -10.9170  -9.1689
    -5.4394  -3.6439  -2.2810   2.1158   6.3403   6.7875   7.5757   8.4368

          k = 0.0833 0.3368 0.0000 (  2705 PWs)   bands (ev):

   -32.9260 -31.6861 -27.8590 -20.0111 -14.2545 -12.5174 -10.0410  -8.1899
    -6.2342  -3.2668  -1.8343   0.5988   7.6215   7.9119   8.0192   8.7633

          k = 0.0833 0.4330 0.0000 (  2710 PWs)   bands (ev):

   -33.4992 -32.0363 -27.7655 -19.0710 -14.0728 -12.9675  -7.4452  -6.8311
    -6.2667  -3.0067  -1.4876  -1.0471   5.2210   7.4094   8.0555   9.5580

          k = 0.0833 0.5292 0.0000 (  2713 PWs)   bands (ev):

   -33.8104 -32.2419 -27.6638 -18.1731 -15.3179 -12.2022  -7.1418  -6.2747
    -3.2084  -2.8847  -2.3756  -1.2727   2.2024   6.2555   7.7665  11.8352

          k = 0.1667 0.2887 0.0000 (  2703 PWs)   bands (ev):

   -33.0447 -31.2617 -28.0557 -20.1644 -14.2904 -12.1403 -10.6170  -8.3609
    -6.5770  -3.0120  -1.7420   0.8883   7.4257   7.8070   8.1195   8.8535

          k = 0.1667 0.3849 0.0000 (  2709 PWs)   bands (ev):

   -33.7697 -31.2748 -28.2118 -19.2978 -13.5289 -12.8211  -7.9570  -7.5397
    -7.0376  -2.4168  -1.3629  -0.5652   5.8903   7.4910   8.7266   9.0807

          k = 0.1667 0.4811 0.0000 (  2736 PWs)   bands (ev):

   -34.2453 -31.3394 -28.2322 -18.3172 -14.8785 -11.7102  -8.1579  -6.4109
    -4.3019  -2.0322  -1.9699  -1.1790   3.3916   5.3074   8.3952  10.8366

          k = 0.1667 0.5774 0.0000 (  2725 PWs)   bands (ev):

   -34.4093 -31.3741 -28.2213 -17.6859 -15.6702 -11.2925  -8.3689  -5.6820
    -2.8835  -2.1314  -1.8057  -1.1302   1.2891   4.7132   8.2018  11.4236

          k = 0.2500 0.4330 0.0000 (  2739 PWs)   bands (ev):

   -34.3938 -30.8517 -28.6203 -18.3777 -14.6397 -11.4324  -8.5970  -6.4803
    -4.7969  -1.8492  -1.6914  -1.0248   4.1817   4.6169   9.2458   9.7714

          k = 0.2500 0.5292 0.0000 (  2751 PWs)   bands (ev):

   -34.7214 -30.5467 -28.9191 -17.4841 -15.7204 -10.5707  -9.1739  -5.3056
    -3.0702  -2.2053  -1.2074  -0.9581   1.7139   3.3077   9.0034  10.3559

          k = 0.3333 0.5774 0.0000 (  2763 PWs)   bands (ev):

   -34.8849 -29.7180 -29.7180 -16.5644 -16.5644 -10.0977  -9.5512  -4.1634
    -4.1634  -0.8956  -0.8956  -0.1477  -0.1477   2.4729   9.7126   9.7126

     the Fermi energy is     2.1019 ev

!    total energy              =     -30.99266311 Ry
     estimated scf accuracy    <          5.8E-09 Ry
     smearing contrib. (-TS)   =      -0.00023536 Ry
     internal energy E=F+TS    =     -30.99242774 Ry

     The total energy is F=E-TS. E is the sum of the following terms:
     one-electron contribution =   -1369.00822646 Ry
     hartree contribution      =     692.59479807 Ry
     xc contribution           =     -35.35564151 Ry
     ewald contribution        =     680.77664216 Ry

     convergence has been achieved in  27 iterations

     negative rho (up, down):  4.828E-03 0.000E+00

     Forces acting on atoms (cartesian axes, Ry/au):

     atom    1 type  1   force =     0.00000000   -0.00000000  -22.68825907
     atom    2 type  1   force =     0.00000000   -0.00000000  -22.68825907
     atom    3 type  1   force =     0.00000000   -0.00000000    0.00044094
     atom    4 type  1   force =     0.00000000    0.00000000    0.00044094
     atom    5 type  1   force =     0.00000000    0.00000000   22.68781813
     atom    6 type  1   force =     0.00000000   -0.00000000   22.68781813

     Total force =    45.376077     Total SCF correction =     0.000265


     Computing stress (Cartesian axis) and pressure


     negative rho (up, down):  4.828E-03 0.000E+00
          total   stress  (Ry/bohr**3)                   (kbar)     P=     8662.53
   0.01140535  -0.00000000   0.00000000         1677.78       -0.00        0.00
  -0.00000000   0.01140535   0.00000000           -0.00     1677.78        0.00
   0.00000000   0.00000000   0.15384940            0.00        0.00    22632.03


     Writing all to output data dir /home/rfa/Skripsi/DFT/dft-graphene/tmp/gr-aa-3L.save/ :
     XML data file, charge density, pseudopotentials, collected wavefunctions

     init_run     :      0.45s CPU      0.48s WALL (       1 calls)
     electrons    :     21.52s CPU     11.57s WALL (       1 calls)
     forces       :      0.07s CPU      0.04s WALL (       1 calls)
     stress       :      0.20s CPU      0.12s WALL (       1 calls)

     Called by init_run:
     wfcinit      :      0.27s CPU      0.15s WALL (       1 calls)
     potinit      :      0.01s CPU      0.01s WALL (       1 calls)
     hinit0       :      0.15s CPU      0.30s WALL (       1 calls)

     Called by electrons:
     c_bands      :     19.10s CPU     10.20s WALL (      27 calls)
     sum_band     :      1.95s CPU      1.05s WALL (      27 calls)
     v_of_rho     :      0.20s CPU      0.12s WALL (      28 calls)
     newd         :      0.14s CPU      0.13s WALL (      28 calls)
     mix_rho      :      0.10s CPU      0.05s WALL (      27 calls)

     Called by c_bands:
     init_us_2    :      0.47s CPU      0.23s WALL (    1083 calls)
     cegterg      :     18.24s CPU      9.69s WALL (     513 calls)

     Called by *egterg:
     cdiaghg      :      2.68s CPU      1.40s WALL (    3711 calls)
     h_psi        :     11.71s CPU      6.29s WALL (    3730 calls)
     s_psi        :      0.44s CPU      0.22s WALL (    3730 calls)
     g_psi        :      0.14s CPU      0.08s WALL (    3198 calls)

     Called by h_psi:
     h_psi:calbec :      2.00s CPU      1.07s WALL (    3730 calls)
     vloc_psi     :      8.67s CPU      4.67s WALL (    3730 calls)
     add_vuspsi   :      0.79s CPU      0.41s WALL (    3730 calls)

     General routines
     calbec       :      2.26s CPU      1.21s WALL (    4566 calls)
     fft          :      0.20s CPU      0.33s WALL (     333 calls)
     ffts         :      0.01s CPU      0.01s WALL (      27 calls)
     fftw         :      7.85s CPU      4.19s WALL (   66476 calls)

     Parallel routines

     PWSCF        :     22.34s CPU     12.53s WALL


   This run was terminated on:  14:34:55  16Apr2025            

=------------------------------------------------------------------------------=
   JOB DONE.
=------------------------------------------------------------------------------=
