
     Program PWSCF v.7.4.1 starts on 16Apr2025 at 14:34:12 

     This program is part of the open-source Quantum ESPRESSO suite
     for quantum simulation of materials; please cite
         "P. Giannozzi et al., J. Phys.:Condens. Matter 21 395502 (2009);
         "P. Giannozzi et al., J. Phys.:Condens. Matter 29 465901 (2017);
         "P. Giannozzi et al., J. Chem. Phys. 152 154105 (2020);
          URL http://www.quantum-espresso.org", 
     in publications or presentations arising from this work. More details at
     http://www.quantum-espresso.org/quote

     Parallel version (MPI), running on     7 processors

     MPI processes distributed on     1 nodes
     13806 MiB available memory on the printing compute node when the environment starts

     Waiting for input...
     Reading input from standard input

     Current dimensions of program PWSCF are:
     Max number of different atomic species (ntypx) = 10
     Max number of k-points (npk) =  40000
     Max angular momentum in pseudopotentials (lmaxx) =  4

     R & G space division:  proc/nbgrp/npool/nimage =       7
     Subspace diagonalization in iterative solution of the eigenvalue problem:
     a serial algorithm will be used


     Parallelization info
     --------------------
     sticks:   dense  smooth     PW     G-vecs:    dense   smooth      PW
     Min          29      29      9                 2121     2121     397
     Max          31      31     13                 2125     2125     402
     Sum         211     211     73                14861    14861    2797

     Using Slab Decomposition



     bravais-lattice index     =            4
     lattice parameter (alat)  =       4.6561  a.u.
     unit-cell volume          =     532.1899 (a.u.)^3
     number of atoms/cell      =            6
     number of atomic types    =            1
     number of electrons       =        24.00
     number of Kohn-Sham states=           16
     kinetic-energy cutoff     =      35.0000  Ry
     charge density cutoff     =     140.0000  Ry
     scf convergence threshold =      1.0E-08
     mixing beta               =       0.7000
     number of iterations used =            8  plain     mixing
     Exchange-correlation= PBE
                           (   1   4   3   4   0   0   0)

     celldm(1)=   4.656107  celldm(2)=   0.000000  celldm(3)=   6.087896
     celldm(4)=   0.000000  celldm(5)=   0.000000  celldm(6)=   0.000000

     crystal axes: (cart. coord. in units of alat)
               a(1) = (   1.000000   0.000000   0.000000 )  
               a(2) = (  -0.500000   0.866025   0.000000 )  
               a(3) = (   0.000000   0.000000   6.087896 )  

     reciprocal axes: (cart. coord. in units 2 pi/alat)
               b(1) = (  1.000000  0.577350 -0.000000 )  
               b(2) = (  0.000000  1.154701  0.000000 )  
               b(3) = (  0.000000 -0.000000  0.164260 )  


     PseudoPot. # 1 for C  read from file:
     /home/rfa/Skripsi/DFT/dft-graphene/pseudo/C.pbe-n-rrkjus_psl.0.1.UPF
     MD5 check sum: 96a6a315177d77e6c95bf6fd3870f9e3
     Pseudo is Ultrasoft + core correction, Zval =  4.0
     Generated using &quot;atomic&quot; code by A. Dal Corso  v.6.3MaX
     Using radial grid of 1073 points,  4 beta functions with: 
                l(1) =   0
                l(2) =   0
                l(3) =   1
                l(4) =   1
     Q(r) pseudized with 0 coefficients 


     atomic species   valence    mass     pseudopotential
     C                 4.00    12.01070     C ( 1.00)

     12 Sym. Ops. (no inversion) found



   Cartesian axes

     site n.     atom                  positions (alat units)
         1        C      tau(   1) = (   0.0000000   0.5773503   3.0439478  )
         2        C      tau(   2) = (   0.5000000   0.2886751   3.0439478  )
         3        C      tau(   3) = (   0.0000000   0.5773503   3.2468777  )
         4        C      tau(   4) = (   0.5000000   0.2886751   3.2468777  )
         5        C      tau(   5) = (   0.0000000   0.5773503   3.4498075  )
         6        C      tau(   6) = (   0.5000000   0.2886751   3.4498075  )

     number of k points=    19  Marzari-Vanderbilt smearing, width (Ry)=  0.0200
                       cart. coord. in units 2pi/alat
        k(    1) = (   0.0000000   0.0000000   0.0000000), wk =   0.0138889
        k(    2) = (   0.0000000   0.0962250   0.0000000), wk =   0.0833333
        k(    3) = (   0.0000000   0.1924501   0.0000000), wk =   0.0833333
        k(    4) = (   0.0000000   0.2886751   0.0000000), wk =   0.0833333
        k(    5) = (   0.0000000   0.3849002   0.0000000), wk =   0.0833333
        k(    6) = (   0.0000000   0.4811252   0.0000000), wk =   0.0833333
        k(    7) = (   0.0000000  -0.5773503   0.0000000), wk =   0.0416667
        k(    8) = (   0.0833333   0.1443376   0.0000000), wk =   0.0833333
        k(    9) = (   0.0833333   0.2405626   0.0000000), wk =   0.1666667
        k(   10) = (   0.0833333   0.3367877   0.0000000), wk =   0.1666667
        k(   11) = (   0.0833333   0.4330127   0.0000000), wk =   0.1666667
        k(   12) = (   0.0833333   0.5292377   0.0000000), wk =   0.1666667
        k(   13) = (   0.1666667   0.2886751   0.0000000), wk =   0.0833333
        k(   14) = (   0.1666667   0.3849002   0.0000000), wk =   0.1666667
        k(   15) = (   0.1666667   0.4811252   0.0000000), wk =   0.1666667
        k(   16) = (   0.1666667   0.5773503   0.0000000), wk =   0.0833333
        k(   17) = (   0.2500000   0.4330127   0.0000000), wk =   0.0833333
        k(   18) = (   0.2500000   0.5292377   0.0000000), wk =   0.1666667
        k(   19) = (   0.3333333   0.5773503   0.0000000), wk =   0.0277778

     Dense  grid:    14861 G-vectors     FFT dimensions: (  18,  18, 108)

     Estimated max dynamical RAM per process >       4.93 MB

     Estimated total dynamical RAM >      34.52 MB

     Check: negative core charge=   -0.000023

     Initial potential from superposition of free atoms

     starting charge      23.9998, renormalised to      24.0000

     negative rho (up, down):  1.435E-03 0.000E+00
     Starting wfcs are   24 randomized atomic wfcs

     total cpu time spent up to now is        0.6 secs

     per-process dynamical memory:     9.9 Mb

     Self-consistent Calculation

     iteration #  1     ecut=    35.00 Ry     beta= 0.70
     Davidson diagonalization with overlap
     ethr =  1.00E-02,  avg # of iterations =  8.7

     negative rho (up, down):  2.464E-02 0.000E+00

     total cpu time spent up to now is        1.2 secs

     total energy              =     -22.80876626 Ry
     estimated scf accuracy    <      23.34114345 Ry

     iteration #  2     ecut=    35.00 Ry     beta= 0.70
     Davidson diagonalization with overlap
     ethr =  1.00E-02,  avg # of iterations = 14.8

     total cpu time spent up to now is        2.0 secs

     total energy              =      -9.71615577 Ry
     estimated scf accuracy    <      57.55973750 Ry

     iteration #  3     ecut=    35.00 Ry     beta= 0.70
     Davidson diagonalization with overlap
     c_bands:  1 eigenvalues not converged
     ethr =  1.00E-02,  avg # of iterations = 12.2

     total cpu time spent up to now is        2.7 secs

     total energy              =     -30.94792927 Ry
     estimated scf accuracy    <       3.26867294 Ry

     iteration #  4     ecut=    35.00 Ry     beta= 0.70
     Davidson diagonalization with overlap
     ethr =  1.00E-02,  avg # of iterations =  1.4

     negative rho (up, down):  1.284E-05 0.000E+00

     total cpu time spent up to now is        2.9 secs

     total energy              =     -30.25068572 Ry
     estimated scf accuracy    <       1.85310737 Ry

     iteration #  5     ecut=    35.00 Ry     beta= 0.70
     Davidson diagonalization with overlap
     ethr =  7.72E-03,  avg # of iterations =  1.5

     negative rho (up, down):  2.831E-05 0.000E+00

     total cpu time spent up to now is        3.2 secs

     total energy              =     -30.14065079 Ry
     estimated scf accuracy    <       0.79734134 Ry

     iteration #  6     ecut=    35.00 Ry     beta= 0.70
     Davidson diagonalization with overlap
     ethr =  3.32E-03,  avg # of iterations =  1.6

     negative rho (up, down):  3.403E-05 0.000E+00

     total cpu time spent up to now is        3.4 secs

     total energy              =     -30.12654419 Ry
     estimated scf accuracy    <       0.56194420 Ry

     iteration #  7     ecut=    35.00 Ry     beta= 0.70
     Davidson diagonalization with overlap
     ethr =  2.34E-03,  avg # of iterations =  1.5

     negative rho (up, down):  3.247E-05 0.000E+00

     total cpu time spent up to now is        3.6 secs

     total energy              =     -30.11549552 Ry
     estimated scf accuracy    <       0.49821347 Ry

     iteration #  8     ecut=    35.00 Ry     beta= 0.70
     Davidson diagonalization with overlap
     ethr =  2.08E-03,  avg # of iterations =  1.1

     negative rho (up, down):  3.863E-03 0.000E+00

     total cpu time spent up to now is        3.8 secs

     total energy              =     -29.81237737 Ry
     estimated scf accuracy    <       0.45470613 Ry

     iteration #  9     ecut=    35.00 Ry     beta= 0.70
     Davidson diagonalization with overlap
     ethr =  1.89E-03,  avg # of iterations =  3.2

     negative rho (up, down):  2.125E-02 0.000E+00

     total cpu time spent up to now is        4.1 secs

     total energy              =     -29.81341981 Ry
     estimated scf accuracy    <       0.07355687 Ry

     iteration # 10     ecut=    35.00 Ry     beta= 0.70
     Davidson diagonalization with overlap
     c_bands:  1 eigenvalues not converged
     ethr =  3.06E-04,  avg # of iterations = 11.9

     negative rho (up, down):  2.523E-02 0.000E+00

     total cpu time spent up to now is        4.6 secs

     total energy              =     -29.82661600 Ry
     estimated scf accuracy    <       0.02143872 Ry

     iteration # 11     ecut=    35.00 Ry     beta= 0.70
     Davidson diagonalization with overlap
     c_bands:  1 eigenvalues not converged
     ethr =  8.93E-05,  avg # of iterations =  8.8

     negative rho (up, down):  3.645E-02 0.000E+00

     total cpu time spent up to now is        5.0 secs

     total energy              =     -29.82502985 Ry
     estimated scf accuracy    <       0.01895313 Ry

     iteration # 12     ecut=    35.00 Ry     beta= 0.70
     Davidson diagonalization with overlap
     c_bands:  1 eigenvalues not converged
     ethr =  7.90E-05,  avg # of iterations = 10.3

     negative rho (up, down):  3.555E-02 0.000E+00

     total cpu time spent up to now is        5.4 secs

     total energy              =     -29.82511664 Ry
     estimated scf accuracy    <       0.00890580 Ry

     iteration # 13     ecut=    35.00 Ry     beta= 0.70
     Davidson diagonalization with overlap
     ethr =  3.71E-05,  avg # of iterations =  2.2

     negative rho (up, down):  3.459E-02 0.000E+00

     total cpu time spent up to now is        5.6 secs

     total energy              =     -29.82432095 Ry
     estimated scf accuracy    <       0.00516279 Ry

     iteration # 14     ecut=    35.00 Ry     beta= 0.70
     Davidson diagonalization with overlap
     ethr =  2.15E-05,  avg # of iterations =  2.6

     negative rho (up, down):  3.363E-02 0.000E+00

     total cpu time spent up to now is        5.9 secs

     total energy              =     -29.82392430 Ry
     estimated scf accuracy    <       0.00202196 Ry

     iteration # 15     ecut=    35.00 Ry     beta= 0.70
     Davidson diagonalization with overlap
     c_bands:  1 eigenvalues not converged
     ethr =  8.42E-06,  avg # of iterations = 11.9

     negative rho (up, down):  3.319E-02 0.000E+00

     total cpu time spent up to now is        6.4 secs

     total energy              =     -29.82479133 Ry
     estimated scf accuracy    <       0.00049918 Ry

     iteration # 16     ecut=    35.00 Ry     beta= 0.70
     Davidson diagonalization with overlap
     ethr =  2.08E-06,  avg # of iterations =  7.1

     negative rho (up, down):  3.320E-02 0.000E+00

     total cpu time spent up to now is        6.8 secs

     total energy              =     -29.82498352 Ry
     estimated scf accuracy    <       0.00101571 Ry

     iteration # 17     ecut=    35.00 Ry     beta= 0.70
     Davidson diagonalization with overlap
     ethr =  2.08E-06,  avg # of iterations =  1.3

     negative rho (up, down):  3.326E-02 0.000E+00

     total cpu time spent up to now is        7.0 secs

     total energy              =     -29.82479285 Ry
     estimated scf accuracy    <       0.00104344 Ry

     iteration # 18     ecut=    35.00 Ry     beta= 0.70
     Davidson diagonalization with overlap
     ethr =  2.08E-06,  avg # of iterations =  2.1

     negative rho (up, down):  3.320E-02 0.000E+00

     total cpu time spent up to now is        7.2 secs

     total energy              =     -29.82476073 Ry
     estimated scf accuracy    <       0.00063635 Ry

     iteration # 19     ecut=    35.00 Ry     beta= 0.70
     Davidson diagonalization with overlap
     ethr =  2.08E-06,  avg # of iterations =  2.2

     negative rho (up, down):  3.323E-02 0.000E+00

     total cpu time spent up to now is        7.5 secs

     total energy              =     -29.82479002 Ry
     estimated scf accuracy    <       0.00049466 Ry

     iteration # 20     ecut=    35.00 Ry     beta= 0.70
     Davidson diagonalization with overlap
     ethr =  2.06E-06,  avg # of iterations =  1.0

     negative rho (up, down):  3.319E-02 0.000E+00

     total cpu time spent up to now is        7.7 secs

     total energy              =     -29.82479200 Ry
     estimated scf accuracy    <       0.00051676 Ry

     iteration # 21     ecut=    35.00 Ry     beta= 0.70
     Davidson diagonalization with overlap
     ethr =  2.06E-06,  avg # of iterations =  1.0

     negative rho (up, down):  3.328E-02 0.000E+00

     total cpu time spent up to now is        7.9 secs

     total energy              =     -29.82481551 Ry
     estimated scf accuracy    <       0.00050540 Ry

     iteration # 22     ecut=    35.00 Ry     beta= 0.70
     Davidson diagonalization with overlap
     ethr =  2.06E-06,  avg # of iterations =  1.1

     negative rho (up, down):  3.313E-02 0.000E+00

     total cpu time spent up to now is        8.2 secs

     total energy              =     -29.82465708 Ry
     estimated scf accuracy    <       0.00055377 Ry

     iteration # 23     ecut=    35.00 Ry     beta= 0.70
     Davidson diagonalization with overlap
     ethr =  2.06E-06,  avg # of iterations =  1.7

     negative rho (up, down):  3.316E-02 0.000E+00

     total cpu time spent up to now is        8.4 secs

     total energy              =     -29.82463730 Ry
     estimated scf accuracy    <       0.00017459 Ry

     iteration # 24     ecut=    35.00 Ry     beta= 0.70
     Davidson diagonalization with overlap
     c_bands:  1 eigenvalues not converged
     ethr =  7.27E-07,  avg # of iterations =  8.4

     negative rho (up, down):  3.320E-02 0.000E+00

     total cpu time spent up to now is        8.8 secs

     total energy              =     -29.82469088 Ry
     estimated scf accuracy    <       0.00012693 Ry

     iteration # 25     ecut=    35.00 Ry     beta= 0.70
     Davidson diagonalization with overlap
     ethr =  5.29E-07,  avg # of iterations =  1.5

     negative rho (up, down):  3.329E-02 0.000E+00

     total cpu time spent up to now is        9.1 secs

     total energy              =     -29.82469701 Ry
     estimated scf accuracy    <       0.00006807 Ry

     iteration # 26     ecut=    35.00 Ry     beta= 0.70
     Davidson diagonalization with overlap
     ethr =  2.84E-07,  avg # of iterations =  3.6

     negative rho (up, down):  3.330E-02 0.000E+00

     total cpu time spent up to now is        9.4 secs

     total energy              =     -29.82470707 Ry
     estimated scf accuracy    <       0.00012297 Ry

     iteration # 27     ecut=    35.00 Ry     beta= 0.70
     Davidson diagonalization with overlap
     ethr =  2.84E-07,  avg # of iterations =  1.2

     negative rho (up, down):  3.327E-02 0.000E+00

     total cpu time spent up to now is        9.6 secs

     total energy              =     -29.82469471 Ry
     estimated scf accuracy    <       0.00010845 Ry

     iteration # 28     ecut=    35.00 Ry     beta= 0.70
     Davidson diagonalization with overlap
     ethr =  2.84E-07,  avg # of iterations =  1.8

     negative rho (up, down):  3.327E-02 0.000E+00

     total cpu time spent up to now is        9.9 secs

     total energy              =     -29.82469362 Ry
     estimated scf accuracy    <       0.00009508 Ry

     iteration # 29     ecut=    35.00 Ry     beta= 0.70
     Davidson diagonalization with overlap
     ethr =  2.84E-07,  avg # of iterations =  1.5

     negative rho (up, down):  3.323E-02 0.000E+00

     total cpu time spent up to now is       10.1 secs

     total energy              =     -29.82469058 Ry
     estimated scf accuracy    <       0.00007215 Ry

     iteration # 30     ecut=    35.00 Ry     beta= 0.70
     Davidson diagonalization with overlap
     ethr =  2.84E-07,  avg # of iterations =  1.2

     negative rho (up, down):  3.320E-02 0.000E+00

     total cpu time spent up to now is       10.3 secs

     total energy              =     -29.82466929 Ry
     estimated scf accuracy    <       0.00005338 Ry

     iteration # 31     ecut=    35.00 Ry     beta= 0.70
     Davidson diagonalization with overlap
     ethr =  2.22E-07,  avg # of iterations =  3.8

     negative rho (up, down):  3.320E-02 0.000E+00

     total cpu time spent up to now is       10.6 secs

     total energy              =     -29.82468109 Ry
     estimated scf accuracy    <       0.00000070 Ry

     iteration # 32     ecut=    35.00 Ry     beta= 0.70
     Davidson diagonalization with overlap
     ethr =  2.93E-09,  avg # of iterations =  9.7

     negative rho (up, down):  3.320E-02 0.000E+00

     total cpu time spent up to now is       11.3 secs

     total energy              =     -29.82468333 Ry
     estimated scf accuracy    <       0.00000860 Ry

     iteration # 33     ecut=    35.00 Ry     beta= 0.70
     Davidson diagonalization with overlap
     ethr =  2.93E-09,  avg # of iterations =  5.7

     negative rho (up, down):  3.320E-02 0.000E+00

     total cpu time spent up to now is       11.7 secs

     total energy              =     -29.82468405 Ry
     estimated scf accuracy    <       0.00000041 Ry

     iteration # 34     ecut=    35.00 Ry     beta= 0.70
     Davidson diagonalization with overlap
     ethr =  1.72E-09,  avg # of iterations =  4.8

     negative rho (up, down):  3.320E-02 0.000E+00

     total cpu time spent up to now is       12.0 secs

     total energy              =     -29.82468421 Ry
     estimated scf accuracy    <       0.00000035 Ry

     iteration # 35     ecut=    35.00 Ry     beta= 0.70
     Davidson diagonalization with overlap
     ethr =  1.45E-09,  avg # of iterations =  1.7

     negative rho (up, down):  3.320E-02 0.000E+00

     total cpu time spent up to now is       12.3 secs

     total energy              =     -29.82468422 Ry
     estimated scf accuracy    <       0.00000005 Ry

     iteration # 36     ecut=    35.00 Ry     beta= 0.70
     Davidson diagonalization with overlap
     ethr =  1.94E-10,  avg # of iterations =  5.7

     negative rho (up, down):  3.320E-02 0.000E+00

     total cpu time spent up to now is       12.6 secs

     total energy              =     -29.82468427 Ry
     estimated scf accuracy    <       0.00000005 Ry

     iteration # 37     ecut=    35.00 Ry     beta= 0.70
     Davidson diagonalization with overlap
     ethr =  1.94E-10,  avg # of iterations =  1.1

     negative rho (up, down):  3.320E-02 0.000E+00

     total cpu time spent up to now is       12.8 secs

     total energy              =     -29.82468426 Ry
     estimated scf accuracy    <       0.00000003 Ry

     iteration # 38     ecut=    35.00 Ry     beta= 0.70
     Davidson diagonalization with overlap
     ethr =  1.28E-10,  avg # of iterations =  1.8

     negative rho (up, down):  3.320E-02 0.000E+00

     total cpu time spent up to now is       13.1 secs

     End of self-consistent calculation

          k = 0.0000 0.0000 0.0000 (  1907 PWs)   bands (ev):

   -31.5254 -31.5254 -26.8672 -19.9424 -18.7310 -18.7310 -10.3985  -4.3918
    -4.2342  -3.9576  -3.9576   3.8984   4.3063   4.4438   5.2932   6.9901

          k = 0.0000 0.0962 0.0000 (  1889 PWs)   bands (ev):

   -31.7047 -31.6076 -27.2526 -19.9532 -18.3537 -17.7999 -10.2471  -5.7449
    -4.3393  -4.2132  -2.7738   3.9819   4.1261   4.6615   5.5162   7.1611

          k = 0.0000 0.1925 0.0000 (  1891 PWs)   bands (ev):

   -32.1590 -31.9197 -27.8771 -19.5860 -17.3419 -15.4965  -9.7621  -7.7572
    -4.8395  -4.0542  -2.0266   2.9840   4.8092   5.3160   6.1857   7.6620

          k = 0.0000 0.2887 0.0000 (  1870 PWs)   bands (ev):

   -32.7077 -32.4886 -28.1650 -18.7897 -15.9752 -12.4686  -9.6121  -8.9433
    -5.5627  -3.5750  -1.5543   1.5447   5.9455   6.3996   7.2885   8.3364

          k = 0.0000 0.3849 0.0000 (  1848 PWs)   bands (ev):

   -33.1942 -33.1177 -28.1355 -17.8073 -14.5967 -11.3446  -9.1417  -7.7956
    -6.1832  -2.9757  -1.3385  -0.1386   6.6205   7.5189   7.7962   8.4862

          k = 0.0000 0.4811 0.0000 (  1838 PWs)   bands (ev):

   -33.5744 -33.5205 -28.0082 -16.7812 -13.5610 -13.0145  -6.9828  -6.5905
    -5.3094  -2.5567  -1.7838  -1.4111   3.4332   6.9141   8.2169   9.6204

          k = 0.0000-0.5774 0.0000 (  1852 PWs)   bands (ev):

   -33.7375 -33.6357 -27.9458 -16.3255 -13.8745 -13.1743  -6.7312  -6.2838
    -3.0401  -2.7027  -2.4453  -1.4661   1.2197   6.3740   8.0987  12.1225

          k = 0.0833 0.1443 0.0000 (  1893 PWs)   bands (ev):

   -32.1115 -31.7051 -27.7462 -19.6046 -17.6336 -16.2261  -9.9152  -7.0545
    -4.8160  -4.0230  -2.0642   3.3090   4.5816   5.0982   5.9630   7.5021

          k = 0.0833 0.2406 0.0000 (  1862 PWs)   bands (ev):

   -32.7924 -31.9190 -28.1975 -19.1326 -16.3895 -13.6595  -9.2684  -8.9138
    -5.6389  -3.6426  -1.6079   2.1366   5.4910   5.9695   6.8488   8.1397

          k = 0.0833 0.3368 0.0000 (  1859 PWs)   bands (ev):

   -33.5057 -32.2679 -28.3386 -18.2679 -14.9593 -10.6619 -10.5538  -8.3033
    -6.4097  -3.1138  -1.3207   0.5998   6.8352   7.2474   7.6139   8.2574

          k = 0.0833 0.4330 0.0000 (  1850 PWs)   bands (ev):

   -34.0714 -32.6107 -28.2733 -17.2449 -13.6978 -12.3818  -7.6210  -6.9794
    -6.7033  -2.5551  -1.2898  -1.0860   4.8894   7.0435   8.3610   8.7126

          k = 0.0833 0.5292 0.0000 (  1844 PWs)   bands (ev):

   -34.3784 -32.8124 -28.1831 -16.2836 -13.6843 -12.9497  -7.2821  -6.3475
    -3.7368  -2.4492  -2.1813  -1.3475   1.8797   5.8994   8.2806  10.9663

          k = 0.1667 0.2887 0.0000 (  1865 PWs)   bands (ev):

   -33.6254 -31.8521 -28.5304 -18.5336 -14.9930 -11.1412 -10.2560  -8.4823
    -6.7544  -3.0832  -1.1581   0.8957   6.6105   7.0501   7.6630   8.2185

          k = 0.1667 0.3849 0.0000 (  1860 PWs)   bands (ev):

   -34.3433 -31.8563 -28.7144 -17.5420 -13.5504 -11.6379  -8.3080  -7.6841
    -7.2973  -2.4230  -0.8928  -0.5840   5.5662   7.1021   8.2389   8.4801

          k = 0.1667 0.4811 0.0000 (  1855 PWs)   bands (ev):

   -34.8144 -31.9113 -28.7548 -16.5565 -13.0474 -12.4625  -8.2801  -6.4917
    -4.8146  -2.0686  -1.8433  -0.9510   3.0454   4.9407   8.9425  10.2539

          k = 0.1667 0.5774 0.0000 (  1848 PWs)   bands (ev):

   -34.9776 -31.9415 -28.7504 -15.6981 -13.9150 -12.0543  -8.4675  -5.7440
    -2.9257  -2.6884  -1.3407  -1.2286   0.9644   4.3610   8.8442  11.7449

          k = 0.2500 0.4330 0.0000 (  1856 PWs)   bands (ev):

   -34.9626 -31.4254 -29.1408 -16.6150 -12.7397 -12.1896  -8.7811  -6.5650
    -5.2942  -1.8652  -1.7730  -0.7049   3.8640   4.2092   9.8729   9.9911

          k = 0.2500 0.5292 0.0000 (  1855 PWs)   bands (ev):

   -35.2892 -31.1108 -29.4587 -15.6014 -13.8464 -11.3480  -9.3745  -5.3683
    -3.1204  -2.7060  -1.2159  -0.8087   1.3042   2.9779   9.6923  10.8539

          k = 0.3333 0.5774 0.0000 (  1860 PWs)   bands (ev):

   -35.4521 -30.2722 -30.2722 -14.6681 -14.6681 -10.8862  -9.8119  -4.2170
    -4.2170  -0.8695  -0.8695  -0.6200  -0.6200   2.1826  10.3747  10.3747

     the Fermi energy is     1.9295 ev

!    total energy              =     -29.82468426 Ry
     estimated scf accuracy    <          8.8E-09 Ry
     smearing contrib. (-TS)   =      -0.00030939 Ry
     internal energy E=F+TS    =     -29.82437486 Ry

     The total energy is F=E-TS. E is the sum of the following terms:
     one-electron contribution =   -1366.90357839 Ry
     hartree contribution      =     691.54023559 Ry
     xc contribution           =     -35.23767469 Ry
     ewald contribution        =     680.77664263 Ry

     convergence has been achieved in  38 iterations

     negative rho (up, down):  3.320E-02 0.000E+00

     Forces acting on atoms (cartesian axes, Ry/au):

     atom    1 type  1   force =     0.00000000   -0.00000000  -25.71999168
     atom    2 type  1   force =     0.00000000    0.00000000  -25.71999168
     atom    3 type  1   force =     0.00000000    0.00000000   -0.00380119
     atom    4 type  1   force =    -0.00000000   -0.00000000   -0.00380119
     atom    5 type  1   force =     0.00000000   -0.00000000   25.72379287
     atom    6 type  1   force =     0.00000000   -0.00000000   25.72379287

     Total force =    51.443785     Total SCF correction =     0.000596


     Computing stress (Cartesian axis) and pressure


     negative rho (up, down):  3.320E-02 0.000E+00
          total   stress  (Ry/bohr**3)                   (kbar)     P=     8817.90
   0.00925653   0.00000000  -0.00000000         1361.68        0.00       -0.00
   0.00000000   0.00925653   0.00000000            0.00     1361.68        0.00
  -0.00000000   0.00000000   0.16131563           -0.00        0.00    23730.35


     Writing all to output data dir /home/rfa/Skripsi/DFT/dft-graphene/tmp/gr-aa-3L.save/ :
     XML data file, charge density, pseudopotentials, collected wavefunctions

     init_run     :      0.42s CPU      0.53s WALL (       1 calls)
     electrons    :     23.20s CPU     12.47s WALL (       1 calls)
     forces       :      0.04s CPU      0.02s WALL (       1 calls)
     stress       :      0.14s CPU      0.08s WALL (       1 calls)

     Called by init_run:
     wfcinit      :      0.20s CPU      0.11s WALL (       1 calls)
     potinit      :      0.01s CPU      0.01s WALL (       1 calls)
     hinit0       :      0.20s CPU      0.39s WALL (       1 calls)

     Called by electrons:
     c_bands      :     19.98s CPU     10.73s WALL (      38 calls)
     sum_band     :      2.67s CPU      1.42s WALL (      38 calls)
     v_of_rho     :      0.24s CPU      0.13s WALL (      39 calls)
     newd         :      0.17s CPU      0.11s WALL (      39 calls)
     mix_rho      :      0.10s CPU      0.05s WALL (      38 calls)

     Called by c_bands:
     init_us_2    :      0.37s CPU      0.20s WALL (    1501 calls)
     cegterg      :     19.05s CPU     10.16s WALL (     722 calls)

     Called by *egterg:
     cdiaghg      :      2.66s CPU      1.41s WALL (    3848 calls)
     h_psi        :     13.80s CPU      7.36s WALL (    3867 calls)
     s_psi        :      0.36s CPU      0.18s WALL (    3867 calls)
     g_psi        :      0.10s CPU      0.06s WALL (    3126 calls)

     Called by h_psi:
     h_psi:calbec :      1.30s CPU      0.68s WALL (    3867 calls)
     vloc_psi     :     11.68s CPU      6.22s WALL (    3867 calls)
     add_vuspsi   :      0.64s CPU      0.35s WALL (    3867 calls)

     General routines
     calbec       :      1.54s CPU      0.81s WALL (    4912 calls)
     fft          :      0.29s CPU      0.44s WALL (     454 calls)
     ffts         :      0.01s CPU      0.01s WALL (      38 calls)
     fftw         :     12.04s CPU      6.35s WALL (   78900 calls)

     Parallel routines

     PWSCF        :     23.90s CPU     13.36s WALL


   This run was terminated on:  14:34:25  16Apr2025            

=------------------------------------------------------------------------------=
   JOB DONE.
=------------------------------------------------------------------------------=
