
     Program PWSCF v.7.4.1 starts on 16Apr2025 at 14:35:14 

     This program is part of the open-source Quantum ESPRESSO suite
     for quantum simulation of materials; please cite
         "P. Giannozzi et al., J. Phys.:Condens. Matter 21 395502 (2009);
         "P. Giannozzi et al., J. Phys.:Condens. Matter 29 465901 (2017);
         "P. Giannozzi et al., J. Chem. Phys. 152 154105 (2020);
          URL http://www.quantum-espresso.org", 
     in publications or presentations arising from this work. More details at
     http://www.quantum-espresso.org/quote

     Parallel version (MPI), running on     7 processors

     MPI processes distributed on     1 nodes
     13709 MiB available memory on the printing compute node when the environment starts

     Waiting for input...
     Reading input from standard input

     Current dimensions of program PWSCF are:
     Max number of different atomic species (ntypx) = 10
     Max number of k-points (npk) =  40000
     Max angular momentum in pseudopotentials (lmaxx) =  4

     R & G space division:  proc/nbgrp/npool/nimage =       7
     Subspace diagonalization in iterative solution of the eigenvalue problem:
     a serial algorithm will be used


     Parallelization info
     --------------------
     sticks:   dense  smooth     PW     G-vecs:    dense   smooth      PW
     Min          44      44     15                 4122     4122     733
     Max          45      45     16                 4159     4159     742
     Sum         313     313    109                29029    29029    5163

     Using Slab Decomposition



     bravais-lattice index     =            4
     lattice parameter (alat)  =       4.6561  a.u.
     unit-cell volume          =     532.1899 (a.u.)^3
     number of atoms/cell      =            6
     number of atomic types    =            1
     number of electrons       =        24.00
     number of Kohn-Sham states=           16
     kinetic-energy cutoff     =      55.0000  Ry
     charge density cutoff     =     220.0000  Ry
     scf convergence threshold =      1.0E-08
     mixing beta               =       0.7000
     number of iterations used =            8  plain     mixing
     Exchange-correlation= PBE
                           (   1   4   3   4   0   0   0)

     celldm(1)=   4.656107  celldm(2)=   0.000000  celldm(3)=   6.087896
     celldm(4)=   0.000000  celldm(5)=   0.000000  celldm(6)=   0.000000

     crystal axes: (cart. coord. in units of alat)
               a(1) = (   1.000000   0.000000   0.000000 )  
               a(2) = (  -0.500000   0.866025   0.000000 )  
               a(3) = (   0.000000   0.000000   6.087896 )  

     reciprocal axes: (cart. coord. in units 2 pi/alat)
               b(1) = (  1.000000  0.577350 -0.000000 )  
               b(2) = (  0.000000  1.154701  0.000000 )  
               b(3) = (  0.000000 -0.000000  0.164260 )  


     PseudoPot. # 1 for C  read from file:
     /home/rfa/Skripsi/DFT/dft-graphene/pseudo/C.pbe-n-rrkjus_psl.0.1.UPF
     MD5 check sum: 96a6a315177d77e6c95bf6fd3870f9e3
     Pseudo is Ultrasoft + core correction, Zval =  4.0
     Generated using &quot;atomic&quot; code by A. Dal Corso  v.6.3MaX
     Using radial grid of 1073 points,  4 beta functions with: 
                l(1) =   0
                l(2) =   0
                l(3) =   1
                l(4) =   1
     Q(r) pseudized with 0 coefficients 


     atomic species   valence    mass     pseudopotential
     C                 4.00    12.01070     C ( 1.00)

     12 Sym. Ops. (no inversion) found



   Cartesian axes

     site n.     atom                  positions (alat units)
         1        C      tau(   1) = (   0.0000000   0.5773503   3.0439478  )
         2        C      tau(   2) = (   0.5000000   0.2886751   3.0439478  )
         3        C      tau(   3) = (   0.0000000   0.5773503   3.2468777  )
         4        C      tau(   4) = (   0.5000000   0.2886751   3.2468777  )
         5        C      tau(   5) = (   0.0000000   0.5773503   3.4498075  )
         6        C      tau(   6) = (   0.5000000   0.2886751   3.4498075  )

     number of k points=    19  Marzari-Vanderbilt smearing, width (Ry)=  0.0200
                       cart. coord. in units 2pi/alat
        k(    1) = (   0.0000000   0.0000000   0.0000000), wk =   0.0138889
        k(    2) = (   0.0000000   0.0962250   0.0000000), wk =   0.0833333
        k(    3) = (   0.0000000   0.1924501   0.0000000), wk =   0.0833333
        k(    4) = (   0.0000000   0.2886751   0.0000000), wk =   0.0833333
        k(    5) = (   0.0000000   0.3849002   0.0000000), wk =   0.0833333
        k(    6) = (   0.0000000   0.4811252   0.0000000), wk =   0.0833333
        k(    7) = (   0.0000000  -0.5773503   0.0000000), wk =   0.0416667
        k(    8) = (   0.0833333   0.1443376   0.0000000), wk =   0.0833333
        k(    9) = (   0.0833333   0.2405626   0.0000000), wk =   0.1666667
        k(   10) = (   0.0833333   0.3367877   0.0000000), wk =   0.1666667
        k(   11) = (   0.0833333   0.4330127   0.0000000), wk =   0.1666667
        k(   12) = (   0.0833333   0.5292377   0.0000000), wk =   0.1666667
        k(   13) = (   0.1666667   0.2886751   0.0000000), wk =   0.0833333
        k(   14) = (   0.1666667   0.3849002   0.0000000), wk =   0.1666667
        k(   15) = (   0.1666667   0.4811252   0.0000000), wk =   0.1666667
        k(   16) = (   0.1666667   0.5773503   0.0000000), wk =   0.0833333
        k(   17) = (   0.2500000   0.4330127   0.0000000), wk =   0.0833333
        k(   18) = (   0.2500000   0.5292377   0.0000000), wk =   0.1666667
        k(   19) = (   0.3333333   0.5773503   0.0000000), wk =   0.0277778

     Dense  grid:    29029 G-vectors     FFT dimensions: (  24,  24, 135)

     Estimated max dynamical RAM per process >       9.53 MB

     Estimated total dynamical RAM >      66.72 MB

     Check: negative core charge=   -0.000002

     Initial potential from superposition of free atoms

     starting charge      23.9998, renormalised to      24.0000

     negative rho (up, down):  3.022E-04 0.000E+00
     Starting wfcs are   24 randomized atomic wfcs

     total cpu time spent up to now is        0.8 secs

     per-process dynamical memory:    12.5 Mb

     Self-consistent Calculation

     iteration #  1     ecut=    55.00 Ry     beta= 0.70
     Davidson diagonalization with overlap
     ethr =  1.00E-02,  avg # of iterations = 10.5

     negative rho (up, down):  5.247E-03 0.000E+00

     total cpu time spent up to now is        2.2 secs

     total energy              =     -23.85819922 Ry
     estimated scf accuracy    <      24.81367542 Ry

     iteration #  2     ecut=    55.00 Ry     beta= 0.70
     Davidson diagonalization with overlap
     c_bands:  1 eigenvalues not converged
     c_bands:  2 eigenvalues not converged
     c_bands:  3 eigenvalues not converged
     ethr =  1.00E-02,  avg # of iterations = 15.4

     total cpu time spent up to now is        3.7 secs

     total energy              =     -17.02922971 Ry
     estimated scf accuracy    <      36.56922115 Ry

     iteration #  3     ecut=    55.00 Ry     beta= 0.70
     Davidson diagonalization with overlap
     c_bands:  1 eigenvalues not converged
     c_bands:  2 eigenvalues not converged
     ethr =  1.00E-02,  avg # of iterations = 11.9

     total cpu time spent up to now is        4.9 secs

     total energy              =     -31.95765409 Ry
     estimated scf accuracy    <       2.84716429 Ry

     iteration #  4     ecut=    55.00 Ry     beta= 0.70
     Davidson diagonalization with overlap
     ethr =  1.00E-02,  avg # of iterations =  1.8

     total cpu time spent up to now is        5.4 secs

     total energy              =     -31.27395492 Ry
     estimated scf accuracy    <       1.39677544 Ry

     iteration #  5     ecut=    55.00 Ry     beta= 0.70
     Davidson diagonalization with overlap
     ethr =  5.82E-03,  avg # of iterations =  2.6

     total cpu time spent up to now is        5.8 secs

     total energy              =     -31.32232154 Ry
     estimated scf accuracy    <       0.32594525 Ry

     iteration #  6     ecut=    55.00 Ry     beta= 0.70
     Davidson diagonalization with overlap
     ethr =  1.36E-03,  avg # of iterations =  5.7

     total cpu time spent up to now is        6.5 secs

     total energy              =     -31.37807820 Ry
     estimated scf accuracy    <       0.19322039 Ry

     iteration #  7     ecut=    55.00 Ry     beta= 0.70
     Davidson diagonalization with overlap
     ethr =  8.05E-04,  avg # of iterations =  2.5

     total cpu time spent up to now is        7.0 secs

     total energy              =     -31.37907258 Ry
     estimated scf accuracy    <       0.17289561 Ry

     iteration #  8     ecut=    55.00 Ry     beta= 0.70
     Davidson diagonalization with overlap
     ethr =  7.20E-04,  avg # of iterations =  1.9

     negative rho (up, down):  1.074E-03 0.000E+00

     total cpu time spent up to now is        7.4 secs

     total energy              =     -31.28349409 Ry
     estimated scf accuracy    <       0.16385049 Ry

     iteration #  9     ecut=    55.00 Ry     beta= 0.70
     Davidson diagonalization with overlap
     ethr =  6.83E-04,  avg # of iterations =  5.6

     negative rho (up, down):  1.783E-03 0.000E+00

     total cpu time spent up to now is        8.0 secs

     total energy              =     -31.29057397 Ry
     estimated scf accuracy    <       0.02836853 Ry

     iteration # 10     ecut=    55.00 Ry     beta= 0.70
     Davidson diagonalization with overlap
     c_bands:  1 eigenvalues not converged
     c_bands:  3 eigenvalues not converged
     c_bands:  1 eigenvalues not converged
     c_bands:  1 eigenvalues not converged
     ethr =  1.18E-04,  avg # of iterations = 13.2

     negative rho (up, down):  3.775E-03 0.000E+00

     total cpu time spent up to now is        9.1 secs

     total energy              =     -31.30290075 Ry
     estimated scf accuracy    <       0.00645830 Ry

     iteration # 11     ecut=    55.00 Ry     beta= 0.70
     Davidson diagonalization with overlap
     c_bands:  1 eigenvalues not converged
     c_bands:  1 eigenvalues not converged
     ethr =  2.69E-05,  avg # of iterations =  9.9

     negative rho (up, down):  5.242E-03 0.000E+00

     total cpu time spent up to now is       10.0 secs

     total energy              =     -31.30185329 Ry
     estimated scf accuracy    <       0.00687726 Ry

     iteration # 12     ecut=    55.00 Ry     beta= 0.70
     Davidson diagonalization with overlap
     c_bands:  1 eigenvalues not converged
     ethr =  2.69E-05,  avg # of iterations = 10.9

     negative rho (up, down):  5.236E-03 0.000E+00

     total cpu time spent up to now is       10.9 secs

     total energy              =     -31.30349651 Ry
     estimated scf accuracy    <       0.00112555 Ry

     iteration # 13     ecut=    55.00 Ry     beta= 0.70
     Davidson diagonalization with overlap
     c_bands:  1 eigenvalues not converged
     c_bands:  1 eigenvalues not converged
     ethr =  4.69E-06,  avg # of iterations =  8.4

     negative rho (up, down):  5.405E-03 0.000E+00

     total cpu time spent up to now is       11.7 secs

     total energy              =     -31.30372136 Ry
     estimated scf accuracy    <       0.00116364 Ry

     iteration # 14     ecut=    55.00 Ry     beta= 0.70
     Davidson diagonalization with overlap
     ethr =  4.69E-06,  avg # of iterations =  7.9

     negative rho (up, down):  5.418E-03 0.000E+00

     total cpu time spent up to now is       12.4 secs

     total energy              =     -31.30331039 Ry
     estimated scf accuracy    <       0.00156548 Ry

     iteration # 15     ecut=    55.00 Ry     beta= 0.70
     Davidson diagonalization with overlap
     c_bands:  1 eigenvalues not converged
     ethr =  4.69E-06,  avg # of iterations =  9.9

     negative rho (up, down):  5.318E-03 0.000E+00

     total cpu time spent up to now is       13.1 secs

     total energy              =     -31.30389099 Ry
     estimated scf accuracy    <       0.00003953 Ry

     iteration # 16     ecut=    55.00 Ry     beta= 0.70
     Davidson diagonalization with overlap
     c_bands:  1 eigenvalues not converged
     c_bands:  1 eigenvalues not converged
     c_bands:  1 eigenvalues not converged
     c_bands:  1 eigenvalues not converged
     c_bands:  1 eigenvalues not converged
     ethr =  1.65E-07,  avg # of iterations = 16.9

     negative rho (up, down):  5.288E-03 0.000E+00

     total cpu time spent up to now is       15.2 secs

     total energy              =     -31.30414143 Ry
     estimated scf accuracy    <       0.00261350 Ry

     iteration # 17     ecut=    55.00 Ry     beta= 0.70
     Davidson diagonalization with overlap
     c_bands:  1 eigenvalues not converged
     ethr =  1.65E-07,  avg # of iterations =  5.5

     negative rho (up, down):  5.269E-03 0.000E+00

     total cpu time spent up to now is       15.8 secs

     total energy              =     -31.30313591 Ry
     estimated scf accuracy    <       0.00188046 Ry

     iteration # 18     ecut=    55.00 Ry     beta= 0.70
     Davidson diagonalization with overlap
     c_bands:  1 eigenvalues not converged
     c_bands:  1 eigenvalues not converged
     c_bands:  1 eigenvalues not converged
     c_bands:  1 eigenvalues not converged
     c_bands:  2 eigenvalues not converged
     ethr =  1.65E-07,  avg # of iterations = 15.3

     negative rho (up, down):  5.264E-03 0.000E+00

     total cpu time spent up to now is       17.4 secs

     total energy              =     -31.30357710 Ry
     estimated scf accuracy    <       0.00001361 Ry

     iteration # 19     ecut=    55.00 Ry     beta= 0.70
     Davidson diagonalization with overlap
     ethr =  5.67E-08,  avg # of iterations =  5.7

     negative rho (up, down):  5.266E-03 0.000E+00

     total cpu time spent up to now is       18.0 secs

     total energy              =     -31.30358041 Ry
     estimated scf accuracy    <       0.00000284 Ry

     iteration # 20     ecut=    55.00 Ry     beta= 0.70
     Davidson diagonalization with overlap
     ethr =  1.18E-08,  avg # of iterations =  4.7

     negative rho (up, down):  5.264E-03 0.000E+00

     total cpu time spent up to now is       18.7 secs

     total energy              =     -31.30358191 Ry
     estimated scf accuracy    <       0.00000313 Ry

     iteration # 21     ecut=    55.00 Ry     beta= 0.70
     Davidson diagonalization with overlap
     ethr =  1.18E-08,  avg # of iterations =  1.1

     negative rho (up, down):  5.271E-03 0.000E+00

     total cpu time spent up to now is       19.1 secs

     total energy              =     -31.30357968 Ry
     estimated scf accuracy    <       0.00000414 Ry

     iteration # 22     ecut=    55.00 Ry     beta= 0.70
     Davidson diagonalization with overlap
     ethr =  1.18E-08,  avg # of iterations =  3.9

     negative rho (up, down):  5.272E-03 0.000E+00

     total cpu time spent up to now is       19.6 secs

     total energy              =     -31.30358056 Ry
     estimated scf accuracy    <       0.00000009 Ry

     iteration # 23     ecut=    55.00 Ry     beta= 0.70
     Davidson diagonalization with overlap
     ethr =  3.68E-10,  avg # of iterations =  9.7

     negative rho (up, down):  5.273E-03 0.000E+00

     total cpu time spent up to now is       20.9 secs

     total energy              =     -31.30358085 Ry
     estimated scf accuracy    <       0.00000003 Ry

     iteration # 24     ecut=    55.00 Ry     beta= 0.70
     Davidson diagonalization with overlap
     c_bands:  1 eigenvalues not converged
     ethr =  1.42E-10,  avg # of iterations =  4.8

     negative rho (up, down):  5.274E-03 0.000E+00

     total cpu time spent up to now is       21.5 secs

     total energy              =     -31.30358086 Ry
     estimated scf accuracy    <       0.00000001 Ry

     iteration # 25     ecut=    55.00 Ry     beta= 0.70
     Davidson diagonalization with overlap
     ethr =  5.56E-11,  avg # of iterations =  4.8

     negative rho (up, down):  5.274E-03 0.000E+00

     total cpu time spent up to now is       22.2 secs

     End of self-consistent calculation

          k = 0.0000 0.0000 0.0000 (  3727 PWs)   bands (ev):

   -30.7950 -30.7950 -26.4674 -22.1008 -17.9770 -17.9770 -10.2867  -8.7557
    -4.5105  -3.6183  -3.6183   4.2729   4.8280   5.3714   6.0922   7.8300

          k = 0.0000 0.0962 0.0000 (  3733 PWs)   bands (ev):

   -30.9787 -30.8843 -26.8223 -21.9718 -17.5941 -17.0718 -10.1221  -9.3125
    -4.4238  -3.8773  -3.3528   3.9365   5.0551   5.5837   6.3148   7.9314

          k = 0.0000 0.1925 0.0000 (  3703 PWs)   bands (ev):

   -31.4387 -31.2154 -27.3890 -21.5775 -16.5625 -14.8101 -10.5761  -9.6291
    -4.5049  -4.2274  -2.8143   2.9926   5.7356   6.2186   6.9808   8.1705

          k = 0.0000 0.2887 0.0000 (  3676 PWs)   bands (ev):

   -31.9943 -31.8129 -27.6236 -20.9432 -15.1699 -12.1392 -11.8271  -8.8170
    -5.2314  -4.0172  -2.2928   1.5803   6.8641   7.2379   8.0687   8.4468

          k = 0.0000 0.3849 0.0000 (  3662 PWs)   bands (ev):

   -32.4878 -32.4623 -27.5540 -20.0941 -13.7792 -13.7598  -8.6389  -7.5653
    -5.8539  -3.8892  -1.8347  -0.0957   6.9897   7.9440   8.3791   9.0398

          k = 0.0000 0.4811 0.0000 (  3654 PWs)   bands (ev):

   -32.9296 -32.8184 -27.4040 -19.1541 -15.2297 -12.6974  -6.8672  -6.2628
    -4.7032  -3.8511  -1.7096  -1.4597   3.8175   7.3265   7.6659  10.5397

          k = 0.0000-0.5774 0.0000 (  3600 PWs)   bands (ev):

   -33.0950 -32.9335 -27.3353 -18.5658 -15.9774 -12.2981  -6.4042  -6.1843
    -3.8453  -2.6067  -2.3393  -1.3030   1.5570   6.7995   7.4943  12.4795

          k = 0.0833 0.1443 0.0000 (  3705 PWs)   bands (ev):

   -31.3962 -30.9861 -27.2766 -21.7033 -16.8608 -15.5298 -10.1858  -9.7929
    -4.6282  -3.9825  -2.9518   3.3025   5.5088   6.0075   6.7590   8.1007

          k = 0.0833 0.2406 0.0000 (  3670 PWs)   bands (ev):

   -32.0934 -31.2155 -27.6759 -21.1883 -15.5942 -13.0017 -11.5302  -9.1415
    -5.4181  -3.6851  -2.4222   2.1449   6.4130   6.8445   7.6369   8.4303

          k = 0.0833 0.3368 0.0000 (  3669 PWs)   bands (ev):

   -32.8210 -31.5803 -27.7721 -20.4489 -14.1344 -13.0772  -9.9570  -8.1558
    -6.2177  -3.3748  -1.9587   0.6295   7.6815   7.9287   8.0790   8.7609

          k = 0.0833 0.4330 0.0000 (  3654 PWs)   bands (ev):

   -33.3959 -31.9326 -27.6743 -19.5336 -14.5963 -12.8440  -7.4170  -6.8183
    -6.1805  -3.1723  -1.5650  -1.0198   5.2689   7.4730   7.9954   9.6327

          k = 0.0833 0.5292 0.0000 (  3630 PWs)   bands (ev):

   -33.7075 -32.1385 -27.5698 -18.6454 -15.7847 -12.0759  -7.1336  -6.2535
    -3.1172  -3.0899  -2.3432  -1.3027   2.2542   6.3168   7.6941  11.8173

          k = 0.1667 0.2887 0.0000 (  3687 PWs)   bands (ev):

   -32.9399 -31.1546 -27.9706 -20.5697 -14.1697 -12.7978 -10.5290  -8.3280
    -6.5571  -3.0413  -1.9418   0.9169   7.4913   7.8476   8.1770   9.0006

          k = 0.1667 0.3849 0.0000 (  3677 PWs)   bands (ev):

   -33.6660 -31.1708 -28.1215 -19.7426 -14.1344 -12.6981  -7.9073  -7.5240
    -6.9726  -2.4752  -1.5324  -0.5386   5.9378   7.5563   8.6648   9.1537

          k = 0.1667 0.4811 0.0000 (  3638 PWs)   bands (ev):

   -34.1417 -31.2362 -28.1375 -18.7870 -15.4029 -11.5824  -8.1453  -6.3880
    -4.2087  -2.0792  -2.0042  -1.2640   3.4490   5.3738   8.3029  10.7463

          k = 0.1667 0.5774 0.0000 (  3632 PWs)   bands (ev):

   -34.3066 -31.2709 -28.1246 -18.1835 -16.1096 -11.1633  -8.3578  -5.6621
    -2.8538  -2.0371  -1.9407  -1.1637   1.3459   4.7737   8.1100  11.2920

          k = 0.2500 0.4330 0.0000 (  3641 PWs)   bands (ev):

   -34.2900 -30.7479 -28.5262 -18.8412 -15.2011 -11.3051  -8.5703  -6.4582
    -4.7079  -1.8226  -1.7314  -1.1689   4.2310   4.6939   9.1161   9.6727

          k = 0.2500 0.5292 0.0000 (  3658 PWs)   bands (ev):

   -34.6187 -30.4443 -28.8229 -17.9390 -16.2099 -10.4399  -9.1395  -5.2847
    -3.0457  -2.1153  -1.2652  -1.0376   1.7832   3.3624   8.8762  10.2278

          k = 0.3333 0.5774 0.0000 (  3666 PWs)   bands (ev):

   -34.7822 -29.6184 -29.6184 -17.0610 -17.0610  -9.9640  -9.5065  -4.1396
    -4.1396  -0.9631  -0.9631  -0.0604  -0.0604   2.5188   9.5702   9.5703

     the Fermi energy is     2.1406 ev

!    total energy              =     -31.30358086 Ry
     estimated scf accuracy    <          7.2E-09 Ry
     smearing contrib. (-TS)   =      -0.00022387 Ry
     internal energy E=F+TS    =     -31.30335698 Ry

     The total energy is F=E-TS. E is the sum of the following terms:
     one-electron contribution =   -1369.51736371 Ry
     hartree contribution      =     692.82382311 Ry
     xc contribution           =     -35.38645914 Ry
     ewald contribution        =     680.77664276 Ry

     convergence has been achieved in  25 iterations

     negative rho (up, down):  5.274E-03 0.000E+00

     Forces acting on atoms (cartesian axes, Ry/au):

     atom    1 type  1   force =     0.00000000    0.00000000  -21.75414396
     atom    2 type  1   force =     0.00000000    0.00000000  -21.75414396
     atom    3 type  1   force =     0.00000000    0.00000000    0.00005342
     atom    4 type  1   force =     0.00000000   -0.00000000    0.00005342
     atom    5 type  1   force =     0.00000000    0.00000000   21.75409054
     atom    6 type  1   force =     0.00000000   -0.00000000   21.75409054

     Total force =    43.508235     Total SCF correction =     0.000412


     Computing stress (Cartesian axis) and pressure


     negative rho (up, down):  5.274E-03 0.000E+00
          total   stress  (Ry/bohr**3)                   (kbar)     P=     8647.51
   0.01206113   0.00000000   0.00000000         1774.25        0.00        0.00
   0.00000000   0.01206113   0.00000000            0.00     1774.25        0.00
   0.00000000   0.00000000   0.15223154            0.00        0.00    22394.03


     Writing all to output data dir /home/rfa/Skripsi/DFT/dft-graphene/tmp/gr-aa-3L.save/ :
     XML data file, charge density, pseudopotentials, collected wavefunctions

     init_run     :      0.64s CPU      0.72s WALL (       1 calls)
     electrons    :     39.33s CPU     21.37s WALL (       1 calls)
     forces       :      0.10s CPU      0.06s WALL (       1 calls)
     stress       :      0.35s CPU      0.21s WALL (       1 calls)

     Called by init_run:
     wfcinit      :      0.39s CPU      0.25s WALL (       1 calls)
     potinit      :      0.01s CPU      0.01s WALL (       1 calls)
     hinit0       :      0.20s CPU      0.40s WALL (       1 calls)

     Called by electrons:
     c_bands      :     35.23s CPU     19.00s WALL (      25 calls)
     sum_band     :      3.54s CPU      1.93s WALL (      25 calls)
     v_of_rho     :      0.21s CPU      0.18s WALL (      26 calls)
     newd         :      0.18s CPU      0.17s WALL (      26 calls)
     mix_rho      :      0.14s CPU      0.08s WALL (      25 calls)

     Called by c_bands:
     init_us_2    :      0.60s CPU      0.32s WALL (    1007 calls)
     cegterg      :     34.22s CPU     18.41s WALL (     475 calls)

     Called by *egterg:
     cdiaghg      :      3.05s CPU      1.58s WALL (    4097 calls)
     h_psi        :     25.20s CPU     13.75s WALL (    4116 calls)
     s_psi        :      0.67s CPU      0.35s WALL (    4116 calls)
     g_psi        :      0.19s CPU      0.11s WALL (    3622 calls)

     Called by h_psi:
     h_psi:calbec :      3.18s CPU      1.68s WALL (    4116 calls)
     vloc_psi     :     20.36s CPU     11.18s WALL (    4116 calls)
     add_vuspsi   :      1.34s CPU      0.69s WALL (    4116 calls)

     General routines
     calbec       :      3.63s CPU      1.92s WALL (    4914 calls)
     fft          :      0.26s CPU      0.45s WALL (     311 calls)
     ffts         :      0.01s CPU      0.01s WALL (      25 calls)
     fftw         :     19.38s CPU     10.72s WALL (   69746 calls)

     Parallel routines

     PWSCF        :     40.53s CPU     22.72s WALL


   This run was terminated on:  14:35:37  16Apr2025            

=------------------------------------------------------------------------------=
   JOB DONE.
=------------------------------------------------------------------------------=
