
     Program PWSCF v.7.4.1 starts on 16Apr2025 at 14:33:44 

     This program is part of the open-source Quantum ESPRESSO suite
     for quantum simulation of materials; please cite
         "P. Giannozzi et al., J. Phys.:Condens. Matter 21 395502 (2009);
         "P. Giannozzi et al., J. Phys.:Condens. Matter 29 465901 (2017);
         "P. Giannozzi et al., J. Chem. Phys. 152 154105 (2020);
          URL http://www.quantum-espresso.org", 
     in publications or presentations arising from this work. More details at
     http://www.quantum-espresso.org/quote

     Parallel version (MPI), running on     7 processors

     MPI processes distributed on     1 nodes
     13725 MiB available memory on the printing compute node when the environment starts

     Waiting for input...
     Reading input from standard input

     Current dimensions of program PWSCF are:
     Max number of different atomic species (ntypx) = 10
     Max number of k-points (npk) =  40000
     Max angular momentum in pseudopotentials (lmaxx) =  4

     R & G space division:  proc/nbgrp/npool/nimage =       7
     Subspace diagonalization in iterative solution of the eigenvalue problem:
     a serial algorithm will be used


     Parallelization info
     --------------------
     sticks:   dense  smooth     PW     G-vecs:    dense   smooth      PW
     Min          18      18      6                 1042     1042     210
     Max          19      19      7                 1062     1062     224
     Sum         127     127     43                 7339     7339    1521

     Using Slab Decomposition



     bravais-lattice index     =            4
     lattice parameter (alat)  =       4.6561  a.u.
     unit-cell volume          =     532.1899 (a.u.)^3
     number of atoms/cell      =            6
     number of atomic types    =            1
     number of electrons       =        24.00
     number of Kohn-Sham states=           16
     kinetic-energy cutoff     =      22.0000  Ry
     charge density cutoff     =      88.0000  Ry
     scf convergence threshold =      1.0E-08
     mixing beta               =       0.7000
     number of iterations used =            8  plain     mixing
     Exchange-correlation= PBE
                           (   1   4   3   4   0   0   0)

     celldm(1)=   4.656107  celldm(2)=   0.000000  celldm(3)=   6.087896
     celldm(4)=   0.000000  celldm(5)=   0.000000  celldm(6)=   0.000000

     crystal axes: (cart. coord. in units of alat)
               a(1) = (   1.000000   0.000000   0.000000 )  
               a(2) = (  -0.500000   0.866025   0.000000 )  
               a(3) = (   0.000000   0.000000   6.087896 )  

     reciprocal axes: (cart. coord. in units 2 pi/alat)
               b(1) = (  1.000000  0.577350 -0.000000 )  
               b(2) = (  0.000000  1.154701  0.000000 )  
               b(3) = (  0.000000 -0.000000  0.164260 )  


     PseudoPot. # 1 for C  read from file:
     /home/rfa/Skripsi/DFT/dft-graphene/pseudo/C.pbe-n-rrkjus_psl.0.1.UPF
     MD5 check sum: 96a6a315177d77e6c95bf6fd3870f9e3
     Pseudo is Ultrasoft + core correction, Zval =  4.0
     Generated using &quot;atomic&quot; code by A. Dal Corso  v.6.3MaX
     Using radial grid of 1073 points,  4 beta functions with: 
                l(1) =   0
                l(2) =   0
                l(3) =   1
                l(4) =   1
     Q(r) pseudized with 0 coefficients 


     atomic species   valence    mass     pseudopotential
     C                 4.00    12.01070     C ( 1.00)

     12 Sym. Ops. (no inversion) found



   Cartesian axes

     site n.     atom                  positions (alat units)
         1        C      tau(   1) = (   0.0000000   0.5773503   3.0439478  )
         2        C      tau(   2) = (   0.5000000   0.2886751   3.0439478  )
         3        C      tau(   3) = (   0.0000000   0.5773503   3.2468777  )
         4        C      tau(   4) = (   0.5000000   0.2886751   3.2468777  )
         5        C      tau(   5) = (   0.0000000   0.5773503   3.4498075  )
         6        C      tau(   6) = (   0.5000000   0.2886751   3.4498075  )

     number of k points=    19  Marzari-Vanderbilt smearing, width (Ry)=  0.0200
                       cart. coord. in units 2pi/alat
        k(    1) = (   0.0000000   0.0000000   0.0000000), wk =   0.0138889
        k(    2) = (   0.0000000   0.0962250   0.0000000), wk =   0.0833333
        k(    3) = (   0.0000000   0.1924501   0.0000000), wk =   0.0833333
        k(    4) = (   0.0000000   0.2886751   0.0000000), wk =   0.0833333
        k(    5) = (   0.0000000   0.3849002   0.0000000), wk =   0.0833333
        k(    6) = (   0.0000000   0.4811252   0.0000000), wk =   0.0833333
        k(    7) = (   0.0000000  -0.5773503   0.0000000), wk =   0.0416667
        k(    8) = (   0.0833333   0.1443376   0.0000000), wk =   0.0833333
        k(    9) = (   0.0833333   0.2405626   0.0000000), wk =   0.1666667
        k(   10) = (   0.0833333   0.3367877   0.0000000), wk =   0.1666667
        k(   11) = (   0.0833333   0.4330127   0.0000000), wk =   0.1666667
        k(   12) = (   0.0833333   0.5292377   0.0000000), wk =   0.1666667
        k(   13) = (   0.1666667   0.2886751   0.0000000), wk =   0.0833333
        k(   14) = (   0.1666667   0.3849002   0.0000000), wk =   0.1666667
        k(   15) = (   0.1666667   0.4811252   0.0000000), wk =   0.1666667
        k(   16) = (   0.1666667   0.5773503   0.0000000), wk =   0.0833333
        k(   17) = (   0.2500000   0.4330127   0.0000000), wk =   0.0833333
        k(   18) = (   0.2500000   0.5292377   0.0000000), wk =   0.1666667
        k(   19) = (   0.3333333   0.5773503   0.0000000), wk =   0.0277778

     Dense  grid:     7339 G-vectors     FFT dimensions: (  15,  15,  90)

     Estimated max dynamical RAM per process >       2.54 MB

     Estimated total dynamical RAM >      17.81 MB

     Check: negative core charge=   -0.000272

     Initial potential from superposition of free atoms

     starting charge      23.9998, renormalised to      24.0000

     negative rho (up, down):  1.399E-02 0.000E+00
     Starting wfcs are   24 randomized atomic wfcs

     total cpu time spent up to now is        0.4 secs

     per-process dynamical memory:     8.6 Mb

     Self-consistent Calculation

     iteration #  1     ecut=    22.00 Ry     beta= 0.70
     Davidson diagonalization with overlap
     ethr =  1.00E-02,  avg # of iterations =  5.5

     negative rho (up, down):  1.988E-01 0.000E+00

     total cpu time spent up to now is        0.6 secs

     total energy              =     -19.22148328 Ry
     estimated scf accuracy    <      16.71675284 Ry

     iteration #  2     ecut=    22.00 Ry     beta= 0.70
     Davidson diagonalization with overlap
     ethr =  1.00E-02,  avg # of iterations =  9.6

     negative rho (up, down):  3.383E-03 0.000E+00

     total cpu time spent up to now is        0.9 secs

     total energy              =      -5.09350039 Ry
     estimated scf accuracy    <      63.92352964 Ry

     iteration #  3     ecut=    22.00 Ry     beta= 0.70
     Davidson diagonalization with overlap
     c_bands:  1 eigenvalues not converged
     ethr =  1.00E-02,  avg # of iterations = 10.4

     negative rho (up, down):  2.317E-02 0.000E+00

     total cpu time spent up to now is        1.2 secs

     total energy              =     -25.70275639 Ry
     estimated scf accuracy    <       2.33380790 Ry

     iteration #  4     ecut=    22.00 Ry     beta= 0.70
     Davidson diagonalization with overlap
     ethr =  9.72E-03,  avg # of iterations =  1.3

     negative rho (up, down):  5.938E-02 0.000E+00

     total cpu time spent up to now is        1.3 secs

     total energy              =     -25.18647643 Ry
     estimated scf accuracy    <       1.40094611 Ry

     iteration #  5     ecut=    22.00 Ry     beta= 0.70
     Davidson diagonalization with overlap
     ethr =  5.84E-03,  avg # of iterations =  1.7

     negative rho (up, down):  5.718E-02 0.000E+00

     total cpu time spent up to now is        1.4 secs

     total energy              =     -25.23741715 Ry
     estimated scf accuracy    <       0.69698489 Ry

     iteration #  6     ecut=    22.00 Ry     beta= 0.70
     Davidson diagonalization with overlap
     ethr =  2.90E-03,  avg # of iterations =  2.1

     negative rho (up, down):  9.018E-02 0.000E+00

     total cpu time spent up to now is        1.5 secs

     total energy              =     -24.97142835 Ry
     estimated scf accuracy    <       0.72605329 Ry

     iteration #  7     ecut=    22.00 Ry     beta= 0.70
     Davidson diagonalization with overlap
     ethr =  2.90E-03,  avg # of iterations =  1.6

     negative rho (up, down):  1.464E-01 0.000E+00

     total cpu time spent up to now is        1.6 secs

     total energy              =     -24.76688559 Ry
     estimated scf accuracy    <       0.37679472 Ry

     iteration #  8     ecut=    22.00 Ry     beta= 0.70
     Davidson diagonalization with overlap
     ethr =  1.57E-03,  avg # of iterations =  3.3

     negative rho (up, down):  1.669E-01 0.000E+00

     total cpu time spent up to now is        1.7 secs

     total energy              =     -24.74476357 Ry
     estimated scf accuracy    <       0.11047800 Ry

     iteration #  9     ecut=    22.00 Ry     beta= 0.70
     Davidson diagonalization with overlap
     ethr =  4.60E-04,  avg # of iterations =  4.9

     negative rho (up, down):  1.833E-01 0.000E+00

     total cpu time spent up to now is        1.8 secs

     total energy              =     -24.72412120 Ry
     estimated scf accuracy    <       0.06617151 Ry

     iteration # 10     ecut=    22.00 Ry     beta= 0.70
     Davidson diagonalization with overlap
     ethr =  2.76E-04,  avg # of iterations =  2.7

     negative rho (up, down):  2.020E-01 0.000E+00

     total cpu time spent up to now is        1.9 secs

     total energy              =     -24.70922690 Ry
     estimated scf accuracy    <       0.03593793 Ry

     iteration # 11     ecut=    22.00 Ry     beta= 0.70
     Davidson diagonalization with overlap
     ethr =  1.50E-04,  avg # of iterations =  5.8

     negative rho (up, down):  2.338E-01 0.000E+00

     total cpu time spent up to now is        2.1 secs

     total energy              =     -24.70169236 Ry
     estimated scf accuracy    <       0.01151876 Ry

     iteration # 12     ecut=    22.00 Ry     beta= 0.70
     Davidson diagonalization with overlap
     ethr =  4.80E-05,  avg # of iterations = 10.4

     negative rho (up, down):  2.332E-01 0.000E+00

     total cpu time spent up to now is        2.3 secs

     total energy              =     -24.70309816 Ry
     estimated scf accuracy    <       0.00083304 Ry

     iteration # 13     ecut=    22.00 Ry     beta= 0.70
     Davidson diagonalization with overlap
     ethr =  3.47E-06,  avg # of iterations =  6.8

     negative rho (up, down):  2.359E-01 0.000E+00

     total cpu time spent up to now is        2.5 secs

     total energy              =     -24.70325218 Ry
     estimated scf accuracy    <       0.00090637 Ry

     iteration # 14     ecut=    22.00 Ry     beta= 0.70
     Davidson diagonalization with overlap
     ethr =  3.47E-06,  avg # of iterations =  4.2

     negative rho (up, down):  2.350E-01 0.000E+00

     total cpu time spent up to now is        2.6 secs

     total energy              =     -24.70284273 Ry
     estimated scf accuracy    <       0.00131037 Ry

     iteration # 15     ecut=    22.00 Ry     beta= 0.70
     Davidson diagonalization with overlap
     ethr =  3.47E-06,  avg # of iterations =  4.4

     negative rho (up, down):  2.350E-01 0.000E+00

     total cpu time spent up to now is        2.8 secs

     total energy              =     -24.70298586 Ry
     estimated scf accuracy    <       0.00022683 Ry

     iteration # 16     ecut=    22.00 Ry     beta= 0.70
     Davidson diagonalization with overlap
     ethr =  9.45E-07,  avg # of iterations =  1.3

     negative rho (up, down):  2.339E-01 0.000E+00

     total cpu time spent up to now is        2.9 secs

     total energy              =     -24.70290814 Ry
     estimated scf accuracy    <       0.00018177 Ry

     iteration # 17     ecut=    22.00 Ry     beta= 0.70
     Davidson diagonalization with overlap
     ethr =  7.57E-07,  avg # of iterations =  2.9

     negative rho (up, down):  2.345E-01 0.000E+00

     total cpu time spent up to now is        3.0 secs

     total energy              =     -24.70294254 Ry
     estimated scf accuracy    <       0.00000581 Ry

     iteration # 18     ecut=    22.00 Ry     beta= 0.70
     Davidson diagonalization with overlap
     ethr =  2.42E-08,  avg # of iterations =  2.3

     negative rho (up, down):  2.342E-01 0.000E+00

     total cpu time spent up to now is        3.1 secs

     total energy              =     -24.70294042 Ry
     estimated scf accuracy    <       0.00003303 Ry

     iteration # 19     ecut=    22.00 Ry     beta= 0.70
     Davidson diagonalization with overlap
     ethr =  2.42E-08,  avg # of iterations =  3.6

     negative rho (up, down):  2.341E-01 0.000E+00

     total cpu time spent up to now is        3.3 secs

     total energy              =     -24.70294523 Ry
     estimated scf accuracy    <       0.00000181 Ry

     iteration # 20     ecut=    22.00 Ry     beta= 0.70
     Davidson diagonalization with overlap
     ethr =  7.56E-09,  avg # of iterations =  2.1

     negative rho (up, down):  2.341E-01 0.000E+00

     total cpu time spent up to now is        3.4 secs

     total energy              =     -24.70294602 Ry
     estimated scf accuracy    <       0.00000027 Ry

     iteration # 21     ecut=    22.00 Ry     beta= 0.70
     Davidson diagonalization with overlap
     ethr =  1.13E-09,  avg # of iterations =  3.6

     negative rho (up, down):  2.341E-01 0.000E+00

     total cpu time spent up to now is        3.6 secs

     End of self-consistent calculation

          k = 0.0000 0.0000 0.0000 (   943 PWs)   bands (ev):

   -36.0525 -36.0525 -29.1549 -21.0137 -21.0137 -17.3627  -8.4112  -6.5494
    -6.5494  -6.4882  -2.5372   2.8417   3.2042   4.3805   5.7899   7.2072

          k = 0.0000 0.0962 0.0000 (   946 PWs)   bands (ev):

   -36.1913 -36.0711 -29.6638 -20.9110 -20.5720 -17.3101  -8.2712  -6.9454
    -6.6735  -6.3864  -2.7751   3.0685   3.4257   4.6022   5.9852   7.2932

          k = 0.0000 0.1925 0.0000 (   952 PWs)   bands (ev):

   -36.5856 -36.2048 -30.5265 -20.6054 -18.4984 -16.9876  -7.9861  -7.7671
    -7.2642  -6.1555  -2.5044   3.7514   4.0855   5.2712   6.1175   6.5485

          k = 0.0000 0.2887 0.0000 (   960 PWs)   bands (ev):

   -37.0629 -36.4903 -31.0787 -19.5484 -16.4304 -15.4815  -9.3847  -7.9558
    -7.1261  -5.8811  -2.5275   3.8131   4.8883   5.1784   6.3753   7.4829

          k = 0.0000 0.3849 0.0000 (   934 PWs)   bands (ev):

   -37.4413 -36.7579 -30.9298 -18.1365 -15.4572 -11.6908 -10.7528  -8.4619
    -5.7840  -5.1649  -2.4104   1.6242   4.6843   6.4839   6.7026   7.9432

          k = 0.0000 0.4811 0.0000 (   922 PWs)   bands (ev):

   -37.6797 -36.8738 -29.7439 -17.1169 -14.3499 -12.0928  -8.8863  -7.0953
    -4.4746  -3.6366  -2.9126  -0.5660   1.9177   6.8860   8.5236   8.5384

          k = 0.0000-0.5774 0.0000 (   906 PWs)   bands (ev):

   -37.7274 -36.3571 -29.3805 -16.3203 -13.3532 -13.2754  -9.0342  -5.5515
    -4.0196  -3.2945  -1.7336  -1.6510  -0.8008   6.3799   9.4925  11.2093

          k = 0.0833 0.1443 0.0000 (   939 PWs)   bands (ev):

   -36.5189 -36.0671 -30.3080 -20.3906 -19.2548 -17.0409  -7.8217  -7.5999
    -7.1601  -6.1005  -2.2258   3.5256   3.8680   5.0546   6.3661   6.8749

          k = 0.0833 0.2406 0.0000 (   948 PWs)   bands (ev):

   -37.0676 -36.1093 -31.0010 -19.4678 -16.6727 -16.5963  -8.7731  -7.8997
    -7.3030  -5.8721  -2.3071   4.4325   4.7238   4.7449   5.9353   7.1295

          k = 0.0833 0.3368 0.0000 (   946 PWs)   bands (ev):

   -37.6294 -36.2278 -31.2686 -18.3165 -15.8570 -13.4323 -10.0600  -8.5435
    -6.3800  -5.4152  -2.4264   2.5609   5.6768   5.8164   6.0550   7.2763

          k = 0.0833 0.4330 0.0000 (   919 PWs)   bands (ev):

   -38.0184 -36.1777 -30.6034 -16.9166 -14.7508 -11.3717  -9.1536  -9.0083
    -4.6356  -4.5281  -2.5170   0.3913   3.1679   6.9565   7.6310   7.7624

          k = 0.0833 0.5292 0.0000 (   915 PWs)   bands (ev):

   -38.1718 -36.0810 -29.9480 -15.8898 -13.7758 -12.6204  -9.2749  -5.9308
    -4.1218  -3.1388  -2.5548  -1.4008   0.3766   5.6489   9.4733   9.8822

          k = 0.1667 0.2887 0.0000 (   937 PWs)   bands (ev):

   -37.7381 -35.7400 -31.4159 -16.8570 -15.8847 -14.0787  -9.6281  -8.8039
    -6.4092  -5.4040  -2.2276   3.1135   5.5565   5.8410   5.9377   7.0748

          k = 0.1667 0.3849 0.0000 (   922 PWs)   bands (ev):

   -38.3196 -35.3993 -31.5131 -15.9661 -15.0635 -10.7810 -10.6001  -9.5344
    -5.2694  -4.8218  -2.2158   1.2357   3.7868   6.7716   7.1625   7.3583

          k = 0.1667 0.4811 0.0000 (   910 PWs)   bands (ev):

   -38.6437 -35.1751 -31.0958 -14.5875 -14.0124 -11.7843  -9.9020  -7.1898
    -4.1565  -3.3604  -2.5700  -0.7793   1.6887   4.7478   9.1860   9.2173

          k = 0.1667 0.5774 0.0000 (   914 PWs)   bands (ev):

   -38.8811 -35.2803 -31.0888 -14.2753 -12.9704 -12.9437 -10.0564  -5.4133
    -3.7876  -2.9373  -2.0529  -1.4472  -0.6274   3.8482  10.3866  11.0881

          k = 0.2500 0.4330 0.0000 (   905 PWs)   bands (ev):

   -38.8204 -34.5199 -31.8570 -14.1157 -12.7886 -11.1298 -10.5077  -8.1931
    -4.2014  -3.8113  -2.3759  -0.4712   2.2596   4.0597   8.9447   9.0387

          k = 0.2500 0.5292 0.0000 (   904 PWs)   bands (ev):

   -39.2315 -34.1989 -32.1126 -13.1030 -12.0312 -11.2272 -10.9365  -5.5074
    -3.6164  -2.8272  -2.3293  -1.8414   0.4503   2.0977  10.4628  10.8243

          k = 0.3333 0.5774 0.0000 (   900 PWs)   bands (ev):

   -39.4038 -33.0324 -33.0324 -12.2183 -12.2183 -11.8096  -7.8083  -3.9676
    -3.9676  -3.2490  -3.2490  -0.2014  -0.2014   0.1697  10.2326  11.6398

     the Fermi energy is     1.9675 ev

!    total energy              =     -24.70294637 Ry
     estimated scf accuracy    <          6.8E-09 Ry
     smearing contrib. (-TS)   =       0.00000269 Ry
     internal energy E=F+TS    =     -24.70294905 Ry

     The total energy is F=E-TS. E is the sum of the following terms:
     one-electron contribution =   -1355.37841370 Ry
     hartree contribution      =     684.20264331 Ry
     xc contribution           =     -34.30382152 Ry
     ewald contribution        =     680.77664286 Ry

     convergence has been achieved in  21 iterations

     negative rho (up, down):  2.341E-01 0.000E+00

     Forces acting on atoms (cartesian axes, Ry/au):

     atom    1 type  1   force =     0.00000000   -0.00000000  -28.27726456
     atom    2 type  1   force =     0.00000000    0.00000000  -28.27726456
     atom    3 type  1   force =     0.00000000    0.00000000   -0.00000935
     atom    4 type  1   force =     0.00000000    0.00000000   -0.00000935
     atom    5 type  1   force =     0.00000000    0.00000000   28.27727391
     atom    6 type  1   force =     0.00000000    0.00000000   28.27727391

     Total force =    56.554538     Total SCF correction =     0.000023


     Computing stress (Cartesian axis) and pressure


     negative rho (up, down):  2.341E-01 0.000E+00
          total   stress  (Ry/bohr**3)                   (kbar)     P=     7460.55
  -0.01104897   0.00000000  -0.00000000        -1625.36        0.00       -0.00
   0.00000000  -0.01104897   0.00000000            0.00    -1625.36        0.00
   0.00000000  -0.00000000   0.17424540            0.00       -0.00    25632.38


     Writing all to output data dir /home/rfa/Skripsi/DFT/dft-graphene/tmp/gr-aa-3L.save/ :
     XML data file, charge density, pseudopotentials, collected wavefunctions

     init_run     :      0.22s CPU      0.31s WALL (       1 calls)
     electrons    :      5.67s CPU      3.19s WALL (       1 calls)
     forces       :      0.03s CPU      0.01s WALL (       1 calls)
     stress       :      0.08s CPU      0.05s WALL (       1 calls)

     Called by init_run:
     wfcinit      :      0.09s CPU      0.06s WALL (       1 calls)
     potinit      :      0.00s CPU      0.00s WALL (       1 calls)
     hinit0       :      0.12s CPU      0.24s WALL (       1 calls)

     Called by electrons:
     c_bands      :      4.95s CPU      2.78s WALL (      21 calls)
     sum_band     :      0.58s CPU      0.32s WALL (      21 calls)
     v_of_rho     :      0.06s CPU      0.04s WALL (      22 calls)
     newd         :      0.04s CPU      0.02s WALL (      22 calls)
     mix_rho      :      0.02s CPU      0.01s WALL (      21 calls)

     Called by c_bands:
     init_us_2    :      0.11s CPU      0.05s WALL (     855 calls)
     cegterg      :      4.69s CPU      2.60s WALL (     399 calls)

     Called by *egterg:
     cdiaghg      :      1.29s CPU      0.68s WALL (    2118 calls)
     h_psi        :      2.79s CPU      1.59s WALL (    2137 calls)
     s_psi        :      0.09s CPU      0.05s WALL (    2137 calls)
     g_psi        :      0.03s CPU      0.02s WALL (    1719 calls)

     Called by h_psi:
     h_psi:calbec :      0.31s CPU      0.19s WALL (    2137 calls)
     vloc_psi     :      2.30s CPU      1.30s WALL (    2137 calls)
     add_vuspsi   :      0.13s CPU      0.06s WALL (    2137 calls)

     General routines
     calbec       :      0.39s CPU      0.24s WALL (    2859 calls)
     fft          :      0.13s CPU      0.23s WALL (     267 calls)
     ffts         :      0.00s CPU      0.00s WALL (      21 calls)
     fftw         :      2.24s CPU      1.25s WALL (   43460 calls)

     Parallel routines

     PWSCF        :      6.07s CPU      3.73s WALL


   This run was terminated on:  14:33:48  16Apr2025            

=------------------------------------------------------------------------------=
   JOB DONE.
=------------------------------------------------------------------------------=
