
     Program PWSCF v.7.4.1 starts on 16Apr2025 at 14:36:32 

     This program is part of the open-source Quantum ESPRESSO suite
     for quantum simulation of materials; please cite
         "P. Giannozzi et al., J. Phys.:Condens. Matter 21 395502 (2009);
         "P. Giannozzi et al., J. Phys.:Condens. Matter 29 465901 (2017);
         "P. Giannozzi et al., J. Chem. Phys. 152 154105 (2020);
          URL http://www.quantum-espresso.org", 
     in publications or presentations arising from this work. More details at
     http://www.quantum-espresso.org/quote

     Parallel version (MPI), running on     7 processors

     MPI processes distributed on     1 nodes
     13551 MiB available memory on the printing compute node when the environment starts

     Waiting for input...
     Reading input from standard input

     Current dimensions of program PWSCF are:
     Max number of different atomic species (ntypx) = 10
     Max number of k-points (npk) =  40000
     Max angular momentum in pseudopotentials (lmaxx) =  4

     R & G space division:  proc/nbgrp/npool/nimage =       7
     Subspace diagonalization in iterative solution of the eigenvalue problem:
     a serial algorithm will be used


     Parallelization info
     --------------------
     sticks:   dense  smooth     PW     G-vecs:    dense   smooth      PW
     Min          60      60     17                 6028     6028    1003
     Max          61      61     18                 6053     6053    1030
     Sum         421     421    121                42223    42223    7091

     Using Slab Decomposition



     bravais-lattice index     =            4
     lattice parameter (alat)  =       4.6561  a.u.
     unit-cell volume          =     532.1899 (a.u.)^3
     number of atoms/cell      =            6
     number of atomic types    =            1
     number of electrons       =        24.00
     number of Kohn-Sham states=           16
     kinetic-energy cutoff     =      70.0000  Ry
     charge density cutoff     =     280.0000  Ry
     scf convergence threshold =      1.0E-08
     mixing beta               =       0.7000
     number of iterations used =            8  plain     mixing
     Exchange-correlation= PBE
                           (   1   4   3   4   0   0   0)

     celldm(1)=   4.656107  celldm(2)=   0.000000  celldm(3)=   6.087896
     celldm(4)=   0.000000  celldm(5)=   0.000000  celldm(6)=   0.000000

     crystal axes: (cart. coord. in units of alat)
               a(1) = (   1.000000   0.000000   0.000000 )  
               a(2) = (  -0.500000   0.866025   0.000000 )  
               a(3) = (   0.000000   0.000000   6.087896 )  

     reciprocal axes: (cart. coord. in units 2 pi/alat)
               b(1) = (  1.000000  0.577350 -0.000000 )  
               b(2) = (  0.000000  1.154701  0.000000 )  
               b(3) = (  0.000000 -0.000000  0.164260 )  


     PseudoPot. # 1 for C  read from file:
     /home/rfa/Skripsi/DFT/dft-graphene/pseudo/C.pbe-n-rrkjus_psl.0.1.UPF
     MD5 check sum: 96a6a315177d77e6c95bf6fd3870f9e3
     Pseudo is Ultrasoft + core correction, Zval =  4.0
     Generated using &quot;atomic&quot; code by A. Dal Corso  v.6.3MaX
     Using radial grid of 1073 points,  4 beta functions with: 
                l(1) =   0
                l(2) =   0
                l(3) =   1
                l(4) =   1
     Q(r) pseudized with 0 coefficients 


     atomic species   valence    mass     pseudopotential
     C                 4.00    12.01070     C ( 1.00)

     12 Sym. Ops. (no inversion) found



   Cartesian axes

     site n.     atom                  positions (alat units)
         1        C      tau(   1) = (   0.0000000   0.5773503   3.0439478  )
         2        C      tau(   2) = (   0.5000000   0.2886751   3.0439478  )
         3        C      tau(   3) = (   0.0000000   0.5773503   3.2468777  )
         4        C      tau(   4) = (   0.5000000   0.2886751   3.2468777  )
         5        C      tau(   5) = (   0.0000000   0.5773503   3.4498075  )
         6        C      tau(   6) = (   0.5000000   0.2886751   3.4498075  )

     number of k points=    19  Marzari-Vanderbilt smearing, width (Ry)=  0.0200
                       cart. coord. in units 2pi/alat
        k(    1) = (   0.0000000   0.0000000   0.0000000), wk =   0.0138889
        k(    2) = (   0.0000000   0.0962250   0.0000000), wk =   0.0833333
        k(    3) = (   0.0000000   0.1924501   0.0000000), wk =   0.0833333
        k(    4) = (   0.0000000   0.2886751   0.0000000), wk =   0.0833333
        k(    5) = (   0.0000000   0.3849002   0.0000000), wk =   0.0833333
        k(    6) = (   0.0000000   0.4811252   0.0000000), wk =   0.0833333
        k(    7) = (   0.0000000  -0.5773503   0.0000000), wk =   0.0416667
        k(    8) = (   0.0833333   0.1443376   0.0000000), wk =   0.0833333
        k(    9) = (   0.0833333   0.2405626   0.0000000), wk =   0.1666667
        k(   10) = (   0.0833333   0.3367877   0.0000000), wk =   0.1666667
        k(   11) = (   0.0833333   0.4330127   0.0000000), wk =   0.1666667
        k(   12) = (   0.0833333   0.5292377   0.0000000), wk =   0.1666667
        k(   13) = (   0.1666667   0.2886751   0.0000000), wk =   0.0833333
        k(   14) = (   0.1666667   0.3849002   0.0000000), wk =   0.1666667
        k(   15) = (   0.1666667   0.4811252   0.0000000), wk =   0.1666667
        k(   16) = (   0.1666667   0.5773503   0.0000000), wk =   0.0833333
        k(   17) = (   0.2500000   0.4330127   0.0000000), wk =   0.0833333
        k(   18) = (   0.2500000   0.5292377   0.0000000), wk =   0.1666667
        k(   19) = (   0.3333333   0.5773503   0.0000000), wk =   0.0277778

     Dense  grid:    42223 G-vectors     FFT dimensions: (  25,  25, 160)

     Estimated max dynamical RAM per process >      13.61 MB

     Estimated total dynamical RAM >      95.24 MB

     Check: negative core charge=   -0.000004

     Initial potential from superposition of free atoms

     starting charge      23.9998, renormalised to      24.0000

     negative rho (up, down):  4.632E-05 0.000E+00
     Starting wfcs are   24 randomized atomic wfcs

     total cpu time spent up to now is        0.8 secs

     per-process dynamical memory:    14.7 Mb

     Self-consistent Calculation

     iteration #  1     ecut=    70.00 Ry     beta= 0.70
     Davidson diagonalization with overlap
     ethr =  1.00E-02,  avg # of iterations = 10.7

     negative rho (up, down):  1.429E-04 0.000E+00

     total cpu time spent up to now is        2.9 secs

     total energy              =     -23.92856302 Ry
     estimated scf accuracy    <      24.88115251 Ry

     iteration #  2     ecut=    70.00 Ry     beta= 0.70
     Davidson diagonalization with overlap
     c_bands:  1 eigenvalues not converged
     c_bands:  4 eigenvalues not converged
     c_bands:  3 eigenvalues not converged
     c_bands:  3 eigenvalues not converged
     ethr =  1.00E-02,  avg # of iterations = 14.8

     total cpu time spent up to now is        4.8 secs

     total energy              =     -19.34770812 Ry
     estimated scf accuracy    <      30.25304213 Ry

     iteration #  3     ecut=    70.00 Ry     beta= 0.70
     Davidson diagonalization with overlap
     c_bands:  1 eigenvalues not converged
     ethr =  1.00E-02,  avg # of iterations = 10.8

     total cpu time spent up to now is        6.3 secs

     total energy              =     -31.88103246 Ry
     estimated scf accuracy    <       2.55183082 Ry

     iteration #  4     ecut=    70.00 Ry     beta= 0.70
     Davidson diagonalization with overlap
     ethr =  1.00E-02,  avg # of iterations =  1.7

     total cpu time spent up to now is        6.9 secs

     total energy              =     -31.30132457 Ry
     estimated scf accuracy    <       1.17247846 Ry

     iteration #  5     ecut=    70.00 Ry     beta= 0.70
     Davidson diagonalization with overlap
     ethr =  4.89E-03,  avg # of iterations =  2.3

     total cpu time spent up to now is        7.4 secs

     total energy              =     -31.35588365 Ry
     estimated scf accuracy    <       0.23743217 Ry

     iteration #  6     ecut=    70.00 Ry     beta= 0.70
     Davidson diagonalization with overlap
     ethr =  9.89E-04,  avg # of iterations =  6.0

     total cpu time spent up to now is        8.3 secs

     total energy              =     -31.43120578 Ry
     estimated scf accuracy    <       0.12394516 Ry

     iteration #  7     ecut=    70.00 Ry     beta= 0.70
     Davidson diagonalization with overlap
     ethr =  5.16E-04,  avg # of iterations =  4.1

     negative rho (up, down):  8.815E-07 0.000E+00

     total cpu time spent up to now is        8.9 secs

     total energy              =     -31.39940257 Ry
     estimated scf accuracy    <       0.12063012 Ry

     iteration #  8     ecut=    70.00 Ry     beta= 0.70
     Davidson diagonalization with overlap
     ethr =  5.03E-04,  avg # of iterations =  2.7

     negative rho (up, down):  3.014E-05 0.000E+00

     total cpu time spent up to now is        9.5 secs

     total energy              =     -31.37516248 Ry
     estimated scf accuracy    <       0.04713606 Ry

     iteration #  9     ecut=    70.00 Ry     beta= 0.70
     Davidson diagonalization with overlap
     c_bands:  1 eigenvalues not converged
     c_bands:  1 eigenvalues not converged
     c_bands:  3 eigenvalues not converged
     c_bands:  1 eigenvalues not converged
     c_bands:  1 eigenvalues not converged
     ethr =  1.96E-04,  avg # of iterations = 13.9

     negative rho (up, down):  3.126E-05 0.000E+00

     total cpu time spent up to now is       10.8 secs

     total energy              =     -31.38891158 Ry
     estimated scf accuracy    <       0.00169332 Ry

     iteration # 10     ecut=    70.00 Ry     beta= 0.70
     Davidson diagonalization with overlap
     c_bands:  2 eigenvalues not converged
     c_bands:  2 eigenvalues not converged
     c_bands:  2 eigenvalues not converged
     c_bands:  1 eigenvalues not converged
     c_bands:  1 eigenvalues not converged
     c_bands:  1 eigenvalues not converged
     ethr =  7.06E-06,  avg # of iterations = 16.4

     negative rho (up, down):  3.872E-03 0.000E+00

     total cpu time spent up to now is       12.9 secs

     total energy              =     -31.39455183 Ry
     estimated scf accuracy    <       0.00130861 Ry

     iteration # 11     ecut=    70.00 Ry     beta= 0.70
     Davidson diagonalization with overlap
     c_bands:  1 eigenvalues not converged
     c_bands:  1 eigenvalues not converged
     c_bands:  1 eigenvalues not converged
     c_bands:  1 eigenvalues not converged
     c_bands:  1 eigenvalues not converged
     c_bands:  1 eigenvalues not converged
     c_bands:  1 eigenvalues not converged
     c_bands:  1 eigenvalues not converged
     ethr =  5.45E-06,  avg # of iterations = 16.3

     negative rho (up, down):  3.226E-04 0.000E+00

     total cpu time spent up to now is       14.4 secs

     total energy              =     -31.39307598 Ry
     estimated scf accuracy    <       0.00551476 Ry

     iteration # 12     ecut=    70.00 Ry     beta= 0.70
     Davidson diagonalization with overlap
     c_bands:  1 eigenvalues not converged
     c_bands:  1 eigenvalues not converged
     c_bands:  1 eigenvalues not converged
     ethr =  5.45E-06,  avg # of iterations = 13.3

     negative rho (up, down):  3.430E-04 0.000E+00

     total cpu time spent up to now is       15.6 secs

     total energy              =     -31.39338550 Ry
     estimated scf accuracy    <       0.00073183 Ry

     iteration # 13     ecut=    70.00 Ry     beta= 0.70
     Davidson diagonalization with overlap
     c_bands:  1 eigenvalues not converged
     ethr =  3.05E-06,  avg # of iterations =  4.5

     negative rho (up, down):  3.289E-04 0.000E+00

     total cpu time spent up to now is       16.2 secs

     total energy              =     -31.39334603 Ry
     estimated scf accuracy    <       0.00024344 Ry

     iteration # 14     ecut=    70.00 Ry     beta= 0.70
     Davidson diagonalization with overlap
     ethr =  1.01E-06,  avg # of iterations =  5.5

     negative rho (up, down):  3.334E-04 0.000E+00

     total cpu time spent up to now is       17.0 secs

     total energy              =     -31.39344641 Ry
     estimated scf accuracy    <       0.00001173 Ry

     iteration # 15     ecut=    70.00 Ry     beta= 0.70
     Davidson diagonalization with overlap
     ethr =  4.89E-08,  avg # of iterations = 10.6

     negative rho (up, down):  3.195E-04 0.000E+00

     total cpu time spent up to now is       18.7 secs

     total energy              =     -31.39348237 Ry
     estimated scf accuracy    <       0.00000327 Ry

     iteration # 16     ecut=    70.00 Ry     beta= 0.70
     Davidson diagonalization with overlap
     ethr =  1.36E-08,  avg # of iterations =  4.2

     negative rho (up, down):  3.399E-04 0.000E+00

     total cpu time spent up to now is       19.4 secs

     total energy              =     -31.39348384 Ry
     estimated scf accuracy    <       0.00000050 Ry

     iteration # 17     ecut=    70.00 Ry     beta= 0.70
     Davidson diagonalization with overlap
     ethr =  2.09E-09,  avg # of iterations =  6.8

     negative rho (up, down):  3.374E-04 0.000E+00

     total cpu time spent up to now is       20.5 secs

     total energy              =     -31.39348442 Ry
     estimated scf accuracy    <       0.00000018 Ry

     iteration # 18     ecut=    70.00 Ry     beta= 0.70
     Davidson diagonalization with overlap
     ethr =  7.55E-10,  avg # of iterations =  4.7

     negative rho (up, down):  3.367E-04 0.000E+00

     total cpu time spent up to now is       21.2 secs

     total energy              =     -31.39348436 Ry
     estimated scf accuracy    <       0.00000023 Ry

     iteration # 19     ecut=    70.00 Ry     beta= 0.70
     Davidson diagonalization with overlap
     ethr =  7.55E-10,  avg # of iterations =  3.6

     negative rho (up, down):  3.413E-04 0.000E+00

     total cpu time spent up to now is       21.8 secs

     total energy              =     -31.39348440 Ry
     estimated scf accuracy    <       0.00000002 Ry

     iteration # 20     ecut=    70.00 Ry     beta= 0.70
     Davidson diagonalization with overlap
     ethr =  6.55E-11,  avg # of iterations = 10.9

     negative rho (up, down):  3.401E-04 0.000E+00

     total cpu time spent up to now is       23.5 secs

     total energy              =     -31.39348441 Ry
     estimated scf accuracy    <       0.00000010 Ry

     iteration # 21     ecut=    70.00 Ry     beta= 0.70
     Davidson diagonalization with overlap
     ethr =  6.55E-11,  avg # of iterations =  6.8

     negative rho (up, down):  3.401E-04 0.000E+00

     total cpu time spent up to now is       24.5 secs

     End of self-consistent calculation

          k = 0.0000 0.0000 0.0000 (  5283 PWs)   bands (ev):

   -30.7627 -30.7627 -26.4451 -22.1942 -17.9459 -17.9459 -10.2704  -8.9767
    -4.5192  -3.6026  -3.6026   4.2968   5.2772   5.7734   6.4581   8.2257

          k = 0.0000 0.0962 0.0000 (  5259 PWs)   bands (ev):

   -30.9456 -30.8506 -26.7986 -22.0635 -17.5616 -17.0400 -10.1048  -9.4934
    -4.4335  -3.8610  -3.3510   3.9622   5.5029   5.9789   6.6813   8.1953

          k = 0.0000 0.1925 0.0000 (  5241 PWs)   bands (ev):

   -31.4058 -31.1832 -27.3639 -21.6739 -16.5298 -14.7813 -10.7361  -9.6119
    -4.4888  -4.2422  -2.8317   3.0162   6.1787   6.5910   7.3476   8.3110

          k = 0.0000 0.2887 0.0000 (  5255 PWs)   bands (ev):

   -31.9619 -31.7828 -27.5973 -21.0405 -15.1368 -12.2886 -11.7997  -8.7982
    -5.2150  -4.0462  -2.3159   1.6017   7.2945   7.5356   8.4330   8.5796

          k = 0.0000 0.3849 0.0000 (  5259 PWs)   bands (ev):

   -32.4556 -32.4329 -27.5268 -20.1958 -13.8959 -13.7273  -8.6182  -7.5411
    -5.8381  -3.9305  -1.8444  -0.0759   7.0082   7.9774   8.6737   9.2754

          k = 0.0000 0.4811 0.0000 (  5274 PWs)   bands (ev):

   -32.9007 -32.7860 -27.3770 -19.2489 -15.3397 -12.6646  -6.8519  -6.2465
    -4.6731  -3.8998  -1.6907  -1.4605   3.8366   7.3525   7.6691  10.9686

          k = 0.0000-0.5774 0.0000 (  5280 PWs)   bands (ev):

   -33.0673 -32.9014 -27.3084 -18.6815 -16.0772 -12.2653  -6.3878  -6.1683
    -3.8990  -2.5874  -2.3079  -1.3041   1.5725   6.8232   7.4946  12.5409

          k = 0.0833 0.1443 0.0000 (  5259 PWs)   bands (ev):

   -31.3631 -30.9537 -27.2516 -21.8034 -16.8285 -15.5003 -10.3519  -9.7756
    -4.6256  -3.9822  -2.9674   3.3261   5.9535   6.3880   7.1257   8.2667

          k = 0.0833 0.2406 0.0000 (  5244 PWs)   bands (ev):

   -32.0617 -31.1841 -27.6507 -21.2914 -15.5618 -12.9743 -11.6877  -9.1235
    -5.4096  -3.6951  -2.4516   2.1669   6.8492   7.1857   8.0036   8.5499

          k = 0.0833 0.3368 0.0000 (  5259 PWs)   bands (ev):

   -32.7901 -31.5491 -27.7452 -20.5485 -14.1014 -13.2069  -9.9317  -8.1351
    -6.2088  -3.3939  -1.9798   0.6494   7.8898   8.0866   8.3328   8.9984

          k = 0.0833 0.4330 0.0000 (  5262 PWs)   bands (ev):

   -33.3653 -31.9018 -27.6470 -19.6315 -14.7086 -12.8100  -7.4018  -6.8100
    -6.1503  -3.2047  -1.5723  -1.0005   5.2877   7.5005   8.0005  10.0618

          k = 0.0833 0.5292 0.0000 (  5288 PWs)   bands (ev):

   -33.6774 -32.1084 -27.5427 -18.7591 -15.8930 -12.0418  -7.1263  -6.2377
    -3.1325  -3.0876  -2.3237  -1.3045   2.2719   6.3395   7.6912  11.9300

          k = 0.1667 0.2887 0.0000 (  5266 PWs)   bands (ev):

   -32.9086 -31.1232 -27.9443 -20.6682 -14.1372 -12.9152 -10.5034  -8.3086
    -6.5478  -3.0455  -1.9669   0.9379   7.8219   8.1069   8.3558   9.1674

          k = 0.1667 0.3849 0.0000 (  5269 PWs)   bands (ev):

   -33.6352 -31.1397 -28.0939 -19.8374 -14.2472 -12.6635  -7.8897  -7.5144
    -6.9444  -2.4812  -1.5528  -0.5192   5.9556   7.5827   8.6906   9.5790

          k = 0.1667 0.4811 0.0000 (  5268 PWs)   bands (ev):

   -34.1114 -31.2064 -28.1098 -18.8937 -15.5211 -11.5485  -8.1373  -6.3727
    -4.1795  -2.1020  -1.9861  -1.2744   3.4680   5.3956   8.2937  10.7664

          k = 0.1667 0.5774 0.0000 (  5260 PWs)   bands (ev):

   -34.2761 -31.2416 -28.0971 -18.3013 -16.2293 -11.1299  -8.3501  -5.6465
    -2.8359  -2.0064  -1.9744  -1.1672   1.3640   4.7948   8.0979  11.2762

          k = 0.2500 0.4330 0.0000 (  5254 PWs)   bands (ev):

   -34.2599 -30.7182 -28.4978 -18.9537 -15.3289 -11.2702  -8.5592  -6.4431
    -4.6782  -1.8045  -1.7379  -1.1967   4.2472   4.7181   9.0963   9.6704

          k = 0.2500 0.5292 0.0000 (  5276 PWs)   bands (ev):

   -34.5882 -30.4149 -28.7939 -18.0460 -16.3287 -10.4046  -9.1263  -5.2689
    -3.0281  -2.0856  -1.2779  -1.0494   1.8067   3.3807   8.8553  10.2085

          k = 0.3333 0.5774 0.0000 (  5268 PWs)   bands (ev):

   -34.7512 -29.5888 -29.5888 -17.1698 -17.1698  -9.9288  -9.4906  -4.1230
    -4.1230  -0.9718  -0.9718  -0.0325  -0.0325   2.5341   9.5459   9.5459

     the Fermi energy is     2.1612 ev

!    total energy              =     -31.39348444 Ry
     estimated scf accuracy    <          6.6E-09 Ry
     smearing contrib. (-TS)   =      -0.00023470 Ry
     internal energy E=F+TS    =     -31.39324974 Ry

     The total energy is F=E-TS. E is the sum of the following terms:
     one-electron contribution =   -1369.67978075 Ry
     hartree contribution      =     692.90504401 Ry
     xc contribution           =     -35.39515585 Ry
     ewald contribution        =     680.77664285 Ry

     convergence has been achieved in  21 iterations

     negative rho (up, down):  3.401E-04 0.000E+00

     Forces acting on atoms (cartesian axes, Ry/au):

     atom    1 type  1   force =     0.00000000    0.00000000  -21.48825144
     atom    2 type  1   force =    -0.00000000    0.00000000  -21.48825144
     atom    3 type  1   force =     0.00000000    0.00000000   -0.00237162
     atom    4 type  1   force =     0.00000000    0.00000000   -0.00237162
     atom    5 type  1   force =     0.00000000    0.00000000   21.49062305
     atom    6 type  1   force =    -0.00000000   -0.00000000   21.49062305

     Total force =    42.978875     Total SCF correction =     0.000289


     Computing stress (Cartesian axis) and pressure


     negative rho (up, down):  3.401E-04 0.000E+00
          total   stress  (Ry/bohr**3)                   (kbar)     P=     8697.09
   0.01245485   0.00000000   0.00000000         1832.17        0.00        0.00
   0.00000000   0.01245485  -0.00000000            0.00     1832.17       -0.00
  -0.00000000   0.00000000   0.15245524           -0.00        0.00    22426.94


     Writing all to output data dir /home/rfa/Skripsi/DFT/dft-graphene/tmp/gr-aa-3L.save/ :
     XML data file, charge density, pseudopotentials, collected wavefunctions

     init_run     :      0.73s CPU      0.75s WALL (       1 calls)
     electrons    :     43.44s CPU     23.73s WALL (       1 calls)
     forces       :      0.21s CPU      0.12s WALL (       1 calls)
     stress       :      0.61s CPU      0.35s WALL (       1 calls)

     Called by init_run:
     wfcinit      :      0.47s CPU      0.30s WALL (       1 calls)
     potinit      :      0.01s CPU      0.02s WALL (       1 calls)
     hinit0       :      0.21s CPU      0.38s WALL (       1 calls)

     Called by electrons:
     c_bands      :     39.18s CPU     21.23s WALL (      21 calls)
     sum_band     :      3.64s CPU      1.96s WALL (      21 calls)
     v_of_rho     :      0.19s CPU      0.21s WALL (      22 calls)
     newd         :      0.23s CPU      0.20s WALL (      22 calls)
     mix_rho      :      0.17s CPU      0.11s WALL (      21 calls)

     Called by c_bands:
     init_us_2    :      0.97s CPU      0.48s WALL (     855 calls)
     cegterg      :     37.86s CPU     20.50s WALL (     399 calls)

     Called by *egterg:
     cdiaghg      :      2.81s CPU      1.44s WALL (    3640 calls)
     h_psi        :     25.79s CPU     14.28s WALL (    3659 calls)
     s_psi        :      1.46s CPU      0.77s WALL (    3659 calls)
     g_psi        :      0.28s CPU      0.15s WALL (    3241 calls)

     Called by h_psi:
     h_psi:calbec :      4.13s CPU      2.29s WALL (    3659 calls)
     vloc_psi     :     18.84s CPU     10.49s WALL (    3659 calls)
     add_vuspsi   :      2.42s CPU      1.27s WALL (    3659 calls)

     General routines
     calbec       :      4.84s CPU      2.66s WALL (    4381 calls)
     fft          :      0.26s CPU      0.44s WALL (     267 calls)
     ffts         :      0.01s CPU      0.01s WALL (      21 calls)
     fftw         :     16.89s CPU      9.50s WALL (   62898 calls)

     Parallel routines

     PWSCF        :     45.11s CPU     25.41s WALL


   This run was terminated on:  14:36:57  16Apr2025            

=------------------------------------------------------------------------------=
   JOB DONE.
=------------------------------------------------------------------------------=
