
     Program PWSCF v.7.4.1 starts on 16Apr2025 at 14:37:37 

     This program is part of the open-source Quantum ESPRESSO suite
     for quantum simulation of materials; please cite
         "P. Giannozzi et al., J. Phys.:Condens. Matter 21 395502 (2009);
         "P. Giannozzi et al., J. Phys.:Condens. Matter 29 465901 (2017);
         "P. Giannozzi et al., J. Chem. Phys. 152 154105 (2020);
          URL http://www.quantum-espresso.org", 
     in publications or presentations arising from this work. More details at
     http://www.quantum-espresso.org/quote

     Parallel version (MPI), running on     7 processors

     MPI processes distributed on     1 nodes
     13542 MiB available memory on the printing compute node when the environment starts

     Waiting for input...
     Reading input from standard input

     Current dimensions of program PWSCF are:
     Max number of different atomic species (ntypx) = 10
     Max number of k-points (npk) =  40000
     Max angular momentum in pseudopotentials (lmaxx) =  4

     R & G space division:  proc/nbgrp/npool/nimage =       7
     Subspace diagonalization in iterative solution of the eigenvalue problem:
     a serial algorithm will be used


     Parallelization info
     --------------------
     sticks:   dense  smooth     PW     G-vecs:    dense   smooth      PW
     Min          67      67     21                 7315     7315    1227
     Max          68      68     22                 7338     7338    1238
     Sum         475     475    151                51311    51311    8639

     Using Slab Decomposition



     bravais-lattice index     =            4
     lattice parameter (alat)  =       4.6561  a.u.
     unit-cell volume          =     532.1899 (a.u.)^3
     number of atoms/cell      =            6
     number of atomic types    =            1
     number of electrons       =        24.00
     number of Kohn-Sham states=           16
     kinetic-energy cutoff     =      80.0000  Ry
     charge density cutoff     =     320.0000  Ry
     scf convergence threshold =      1.0E-08
     mixing beta               =       0.7000
     number of iterations used =            8  plain     mixing
     Exchange-correlation= PBE
                           (   1   4   3   4   0   0   0)

     celldm(1)=   4.656107  celldm(2)=   0.000000  celldm(3)=   6.087896
     celldm(4)=   0.000000  celldm(5)=   0.000000  celldm(6)=   0.000000

     crystal axes: (cart. coord. in units of alat)
               a(1) = (   1.000000   0.000000   0.000000 )  
               a(2) = (  -0.500000   0.866025   0.000000 )  
               a(3) = (   0.000000   0.000000   6.087896 )  

     reciprocal axes: (cart. coord. in units 2 pi/alat)
               b(1) = (  1.000000  0.577350 -0.000000 )  
               b(2) = (  0.000000  1.154701  0.000000 )  
               b(3) = (  0.000000 -0.000000  0.164260 )  


     PseudoPot. # 1 for C  read from file:
     /home/rfa/Skripsi/DFT/dft-graphene/pseudo/C.pbe-n-rrkjus_psl.0.1.UPF
     MD5 check sum: 96a6a315177d77e6c95bf6fd3870f9e3
     Pseudo is Ultrasoft + core correction, Zval =  4.0
     Generated using &quot;atomic&quot; code by A. Dal Corso  v.6.3MaX
     Using radial grid of 1073 points,  4 beta functions with: 
                l(1) =   0
                l(2) =   0
                l(3) =   1
                l(4) =   1
     Q(r) pseudized with 0 coefficients 


     atomic species   valence    mass     pseudopotential
     C                 4.00    12.01070     C ( 1.00)

     12 Sym. Ops. (no inversion) found



   Cartesian axes

     site n.     atom                  positions (alat units)
         1        C      tau(   1) = (   0.0000000   0.5773503   3.0439478  )
         2        C      tau(   2) = (   0.5000000   0.2886751   3.0439478  )
         3        C      tau(   3) = (   0.0000000   0.5773503   3.2468777  )
         4        C      tau(   4) = (   0.5000000   0.2886751   3.2468777  )
         5        C      tau(   5) = (   0.0000000   0.5773503   3.4498075  )
         6        C      tau(   6) = (   0.5000000   0.2886751   3.4498075  )

     number of k points=    19  Marzari-Vanderbilt smearing, width (Ry)=  0.0200
                       cart. coord. in units 2pi/alat
        k(    1) = (   0.0000000   0.0000000   0.0000000), wk =   0.0138889
        k(    2) = (   0.0000000   0.0962250   0.0000000), wk =   0.0833333
        k(    3) = (   0.0000000   0.1924501   0.0000000), wk =   0.0833333
        k(    4) = (   0.0000000   0.2886751   0.0000000), wk =   0.0833333
        k(    5) = (   0.0000000   0.3849002   0.0000000), wk =   0.0833333
        k(    6) = (   0.0000000   0.4811252   0.0000000), wk =   0.0833333
        k(    7) = (   0.0000000  -0.5773503   0.0000000), wk =   0.0416667
        k(    8) = (   0.0833333   0.1443376   0.0000000), wk =   0.0833333
        k(    9) = (   0.0833333   0.2405626   0.0000000), wk =   0.1666667
        k(   10) = (   0.0833333   0.3367877   0.0000000), wk =   0.1666667
        k(   11) = (   0.0833333   0.4330127   0.0000000), wk =   0.1666667
        k(   12) = (   0.0833333   0.5292377   0.0000000), wk =   0.1666667
        k(   13) = (   0.1666667   0.2886751   0.0000000), wk =   0.0833333
        k(   14) = (   0.1666667   0.3849002   0.0000000), wk =   0.1666667
        k(   15) = (   0.1666667   0.4811252   0.0000000), wk =   0.1666667
        k(   16) = (   0.1666667   0.5773503   0.0000000), wk =   0.0833333
        k(   17) = (   0.2500000   0.4330127   0.0000000), wk =   0.0833333
        k(   18) = (   0.2500000   0.5292377   0.0000000), wk =   0.1666667
        k(   19) = (   0.3333333   0.5773503   0.0000000), wk =   0.0277778

     Dense  grid:    51311 G-vectors     FFT dimensions: (  27,  27, 162)

     Estimated max dynamical RAM per process >      16.48 MB

     Estimated total dynamical RAM >     115.34 MB

     Check: negative core charge=   -0.000001

     Initial potential from superposition of free atoms

     starting charge      23.9998, renormalised to      24.0000

     negative rho (up, down):  8.026E-05 0.000E+00
     Starting wfcs are   24 randomized atomic wfcs

     total cpu time spent up to now is        0.9 secs

     per-process dynamical memory:    16.5 Mb

     Self-consistent Calculation

     iteration #  1     ecut=    80.00 Ry     beta= 0.70
     Davidson diagonalization with overlap
     ethr =  1.00E-02,  avg # of iterations = 10.7

     negative rho (up, down):  1.059E-03 0.000E+00

     total cpu time spent up to now is        3.9 secs

     total energy              =     -23.95784832 Ry
     estimated scf accuracy    <      24.85555053 Ry

     iteration #  2     ecut=    80.00 Ry     beta= 0.70
     Davidson diagonalization with overlap
     c_bands:  4 eigenvalues not converged
     c_bands:  1 eigenvalues not converged
     ethr =  1.00E-02,  avg # of iterations = 14.3

     total cpu time spent up to now is        6.9 secs

     total energy              =     -18.95302631 Ry
     estimated scf accuracy    <      31.34790645 Ry

     iteration #  3     ecut=    80.00 Ry     beta= 0.70
     Davidson diagonalization with overlap
     c_bands:  3 eigenvalues not converged
     ethr =  1.00E-02,  avg # of iterations = 11.8

     total cpu time spent up to now is        9.1 secs

     total energy              =     -31.91460428 Ry
     estimated scf accuracy    <       2.62748977 Ry

     iteration #  4     ecut=    80.00 Ry     beta= 0.70
     Davidson diagonalization with overlap
     ethr =  1.00E-02,  avg # of iterations =  1.6

     negative rho (up, down):  2.583E-07 0.000E+00

     total cpu time spent up to now is       10.0 secs

     total energy              =     -31.36139500 Ry
     estimated scf accuracy    <       1.23341494 Ry

     iteration #  5     ecut=    80.00 Ry     beta= 0.70
     Davidson diagonalization with overlap
     ethr =  5.14E-03,  avg # of iterations =  2.6

     negative rho (up, down):  8.617E-07 0.000E+00

     total cpu time spent up to now is       10.9 secs

     total energy              =     -31.35349284 Ry
     estimated scf accuracy    <       0.33924565 Ry

     iteration #  6     ecut=    80.00 Ry     beta= 0.70
     Davidson diagonalization with overlap
     ethr =  1.41E-03,  avg # of iterations =  4.9

     negative rho (up, down):  4.984E-07 0.000E+00

     total cpu time spent up to now is       12.1 secs

     total energy              =     -31.45266231 Ry
     estimated scf accuracy    <       0.12943911 Ry

     iteration #  7     ecut=    80.00 Ry     beta= 0.70
     Davidson diagonalization with overlap
     ethr =  5.39E-04,  avg # of iterations =  5.6

     negative rho (up, down):  1.507E-04 0.000E+00

     total cpu time spent up to now is       13.3 secs

     total energy              =     -31.36013051 Ry
     estimated scf accuracy    <       0.15974417 Ry

     iteration #  8     ecut=    80.00 Ry     beta= 0.70
     Davidson diagonalization with overlap
     c_bands:  2 eigenvalues not converged
     c_bands:  1 eigenvalues not converged
     c_bands:  2 eigenvalues not converged
     ethr =  5.39E-04,  avg # of iterations = 10.4

     negative rho (up, down):  1.442E-04 0.000E+00

     total cpu time spent up to now is       15.0 secs

     total energy              =     -31.38756296 Ry
     estimated scf accuracy    <       0.00497946 Ry

     iteration #  9     ecut=    80.00 Ry     beta= 0.70
     Davidson diagonalization with overlap
     c_bands:  2 eigenvalues not converged
     c_bands:  2 eigenvalues not converged
     c_bands:  1 eigenvalues not converged
     c_bands:  4 eigenvalues not converged
     c_bands:  1 eigenvalues not converged
     c_bands:  1 eigenvalues not converged
     ethr =  2.07E-05,  avg # of iterations = 15.8

     negative rho (up, down):  1.488E-04 0.000E+00

     total cpu time spent up to now is       18.0 secs

     total energy              =     -31.39741723 Ry
     estimated scf accuracy    <       0.00309511 Ry

     iteration # 10     ecut=    80.00 Ry     beta= 0.70
     Davidson diagonalization with overlap
     c_bands:  1 eigenvalues not converged
     ethr =  1.29E-05,  avg # of iterations =  4.4

     negative rho (up, down):  1.031E-03 0.000E+00

     total cpu time spent up to now is       19.1 secs

     total energy              =     -31.39677571 Ry
     estimated scf accuracy    <       0.00284246 Ry

     iteration # 11     ecut=    80.00 Ry     beta= 0.70
     Davidson diagonalization with overlap
     c_bands:  1 eigenvalues not converged
     c_bands:  1 eigenvalues not converged
     c_bands:  1 eigenvalues not converged
     ethr =  1.18E-05,  avg # of iterations =  9.4

     negative rho (up, down):  1.450E-03 0.000E+00

     total cpu time spent up to now is       20.5 secs

     total energy              =     -31.39680789 Ry
     estimated scf accuracy    <       0.00046853 Ry

     iteration # 12     ecut=    80.00 Ry     beta= 0.70
     Davidson diagonalization with overlap
     c_bands:  1 eigenvalues not converged
     c_bands:  1 eigenvalues not converged
     c_bands:  1 eigenvalues not converged
     c_bands:  1 eigenvalues not converged
     ethr =  1.95E-06,  avg # of iterations = 11.5

     negative rho (up, down):  1.530E-03 0.000E+00

     total cpu time spent up to now is       22.4 secs

     total energy              =     -31.39704000 Ry
     estimated scf accuracy    <       0.00002108 Ry

     iteration # 13     ecut=    80.00 Ry     beta= 0.70
     Davidson diagonalization with overlap
     c_bands:  1 eigenvalues not converged
     c_bands:  1 eigenvalues not converged
     ethr =  8.78E-08,  avg # of iterations = 12.2

     negative rho (up, down):  1.505E-03 0.000E+00

     total cpu time spent up to now is       25.3 secs

     total energy              =     -31.39711910 Ry
     estimated scf accuracy    <       0.00007508 Ry

     iteration # 14     ecut=    80.00 Ry     beta= 0.70
     Davidson diagonalization with overlap
     c_bands:  1 eigenvalues not converged
     c_bands:  1 eigenvalues not converged
     ethr =  8.78E-08,  avg # of iterations =  3.8

     negative rho (up, down):  1.481E-03 0.000E+00

     total cpu time spent up to now is       26.3 secs

     total energy              =     -31.39710377 Ry
     estimated scf accuracy    <       0.00003662 Ry

     iteration # 15     ecut=    80.00 Ry     beta= 0.70
     Davidson diagonalization with overlap
     ethr =  8.78E-08,  avg # of iterations =  5.1

     negative rho (up, down):  1.469E-03 0.000E+00

     total cpu time spent up to now is       27.4 secs

     total energy              =     -31.39710941 Ry
     estimated scf accuracy    <       0.00000341 Ry

     iteration # 16     ecut=    80.00 Ry     beta= 0.70
     Davidson diagonalization with overlap
     ethr =  1.42E-08,  avg # of iterations =  5.2

     negative rho (up, down):  1.482E-03 0.000E+00

     total cpu time spent up to now is       28.7 secs

     total energy              =     -31.39710976 Ry
     estimated scf accuracy    <       0.00000338 Ry

     iteration # 17     ecut=    80.00 Ry     beta= 0.70
     Davidson diagonalization with overlap
     ethr =  1.41E-08,  avg # of iterations =  1.2

     negative rho (up, down):  1.483E-03 0.000E+00

     total cpu time spent up to now is       29.5 secs

     total energy              =     -31.39710950 Ry
     estimated scf accuracy    <       0.00000091 Ry

     iteration # 18     ecut=    80.00 Ry     beta= 0.70
     Davidson diagonalization with overlap
     ethr =  3.80E-09,  avg # of iterations =  5.3

     negative rho (up, down):  1.481E-03 0.000E+00

     total cpu time spent up to now is       30.8 secs

     total energy              =     -31.39710994 Ry
     estimated scf accuracy    <       0.00000002 Ry

     iteration # 19     ecut=    80.00 Ry     beta= 0.70
     Davidson diagonalization with overlap
     ethr =  7.69E-11,  avg # of iterations = 17.4

     negative rho (up, down):  1.482E-03 0.000E+00

     total cpu time spent up to now is       35.3 secs

     total energy              =     -31.39711018 Ry
     estimated scf accuracy    <       0.00000008 Ry

     iteration # 20     ecut=    80.00 Ry     beta= 0.70
     Davidson diagonalization with overlap
     c_bands:  1 eigenvalues not converged
     ethr =  7.69E-11,  avg # of iterations =  7.3

     negative rho (up, down):  1.484E-03 0.000E+00

     total cpu time spent up to now is       36.8 secs

     total energy              =     -31.39711009 Ry
     estimated scf accuracy    <       0.00000030 Ry

     iteration # 21     ecut=    80.00 Ry     beta= 0.70
     Davidson diagonalization with overlap
     ethr =  7.69E-11,  avg # of iterations =  7.0

     negative rho (up, down):  1.483E-03 0.000E+00

     total cpu time spent up to now is       38.5 secs

     total energy              =     -31.39711011 Ry
     estimated scf accuracy    <       0.00000003 Ry

     iteration # 22     ecut=    80.00 Ry     beta= 0.70
     Davidson diagonalization with overlap
     ethr =  7.69E-11,  avg # of iterations =  5.9

     negative rho (up, down):  1.484E-03 0.000E+00

     total cpu time spent up to now is       39.8 secs

     End of self-consistent calculation

          k = 0.0000 0.0000 0.0000 (  6489 PWs)   bands (ev):

   -30.7635 -30.7635 -26.4450 -22.1959 -17.9471 -17.9471 -10.2704  -8.9809
    -4.5199  -3.6035  -3.6035   4.2971   5.2201   5.7215   6.4167   8.1571

          k = 0.0000 0.0962 0.0000 (  6493 PWs)   bands (ev):

   -30.9464 -30.8514 -26.7986 -22.0648 -17.5627 -17.0410 -10.1048  -9.4960
    -4.4340  -3.8620  -3.3521   3.9624   5.4461   5.9284   6.6397   8.1621

          k = 0.0000 0.1925 0.0000 (  6481 PWs)   bands (ev):

   -31.4066 -31.1840 -27.3642 -21.6756 -16.5311 -14.7823 -10.7387  -9.6118
    -4.4898  -4.2429  -2.8329   3.0163   6.1227   6.5447   7.3058   8.2903

          k = 0.0000 0.2887 0.0000 (  6429 PWs)   bands (ev):

   -31.9627 -31.7833 -27.5976 -21.0418 -15.1381 -12.2908 -11.8005  -8.7980
    -5.2160  -4.0470  -2.3169   1.6018   7.2410   7.5021   8.3906   8.5564

          k = 0.0000 0.3849 0.0000 (  6414 PWs)   bands (ev):

   -32.4562 -32.4336 -27.5271 -20.1978 -13.8979 -13.7287  -8.6190  -7.5411
    -5.8389  -3.9316  -1.8453  -0.0758   7.0071   7.9736   8.6460   9.2400

          k = 0.0000 0.4811 0.0000 (  6418 PWs)   bands (ev):

   -32.9011 -32.7867 -27.3773 -19.2502 -15.3410 -12.6658  -6.8520  -6.2474
    -4.6739  -3.9007  -1.6907  -1.4609   3.8358   7.3515   7.6676  10.9144

          k = 0.0000-0.5774 0.0000 (  6386 PWs)   bands (ev):

   -33.0678 -32.9022 -27.3088 -18.6834 -16.0789 -12.2666  -6.3887  -6.1684
    -3.8999  -2.5873  -2.3088  -1.3044   1.5718   6.8221   7.4931  12.5331

          k = 0.0833 0.1443 0.0000 (  6473 PWs)   bands (ev):

   -31.3637 -30.9544 -27.2518 -21.8046 -16.8295 -15.5013 -10.3536  -9.7755
    -4.6264  -3.9828  -2.9683   3.3264   5.8972   6.3402   7.0840   8.2438

          k = 0.0833 0.2406 0.0000 (  6444 PWs)   bands (ev):

   -32.0625 -31.1848 -27.6510 -21.2925 -15.5629 -12.9751 -11.6900  -9.1234
    -5.4106  -3.6955  -2.4529   2.1670   6.7945   7.1449   7.9613   8.5295

          k = 0.0833 0.3368 0.0000 (  6420 PWs)   bands (ev):

   -32.7909 -31.5498 -27.7456 -20.5499 -14.1026 -13.2094  -9.9326  -8.1350
    -6.2098  -3.3947  -1.9809   0.6495   7.8760   8.0716   8.2905   8.9613

          k = 0.0833 0.4330 0.0000 (  6423 PWs)   bands (ev):

   -33.3660 -31.9025 -27.6473 -19.6333 -14.7104 -12.8112  -7.4021  -6.8109
    -6.1507  -3.2056  -1.5730  -1.0004   5.2867   7.4993   7.9986  10.0067

          k = 0.0833 0.5292 0.0000 (  6418 PWs)   bands (ev):

   -33.6780 -32.1089 -27.5430 -18.7606 -15.8943 -12.0429  -7.1272  -6.2378
    -3.1334  -3.0883  -2.3238  -1.3048   2.2712   6.3385   7.6897  11.9174

          k = 0.1667 0.2887 0.0000 (  6421 PWs)   bands (ev):

   -32.9092 -31.1239 -27.9446 -20.6694 -14.1384 -12.9171 -10.5043  -8.3084
    -6.5487  -3.0458  -1.9678   0.9380   7.7887   8.0788   8.3268   9.1372

          k = 0.1667 0.3849 0.0000 (  6439 PWs)   bands (ev):

   -33.6358 -31.1402 -28.0944 -19.8390 -14.2488 -12.6648  -7.8903  -7.5153
    -6.9445  -2.4817  -1.5538  -0.5191   5.9546   7.5818   8.6866   9.5205

          k = 0.1667 0.4811 0.0000 (  6433 PWs)   bands (ev):

   -34.1121 -31.2070 -28.1103 -18.8954 -15.5229 -11.5500  -8.1383  -6.3728
    -4.1803  -2.1027  -1.9860  -1.2751   3.4671   5.3946   8.2920  10.7614

          k = 0.1667 0.5774 0.0000 (  6408 PWs)   bands (ev):

   -34.2768 -31.2421 -28.0976 -18.3029 -16.2312 -11.1313  -8.3510  -5.6465
    -2.8358  -2.0075  -1.9755  -1.1677   1.3632   4.7938   8.0962  11.2734

          k = 0.2500 0.4330 0.0000 (  6437 PWs)   bands (ev):

   -34.2606 -30.7189 -28.4983 -18.9554 -15.3312 -11.2716  -8.5601  -6.4432
    -4.6790  -1.8045  -1.7384  -1.1979   4.2462   4.7169   9.0944   9.6672

          k = 0.2500 0.5292 0.0000 (  6421 PWs)   bands (ev):

   -34.5887 -30.4154 -28.7944 -18.0475 -16.3303 -10.4060  -9.1270  -5.2689
    -3.0280  -2.0864  -1.2783  -1.0500   1.8059   3.3799   8.8536  10.2062

          k = 0.3333 0.5774 0.0000 (  6408 PWs)   bands (ev):

   -34.7519 -29.5893 -29.5893 -17.1714 -17.1714  -9.9301  -9.4914  -4.1230
    -4.1230  -0.9722  -0.9722  -0.0335  -0.0335   2.5332   9.5437   9.5437

     the Fermi energy is     2.1609 ev

!    total energy              =     -31.39711012 Ry
     estimated scf accuracy    <          7.9E-09 Ry
     smearing contrib. (-TS)   =      -0.00023511 Ry
     internal energy E=F+TS    =     -31.39687501 Ry

     The total energy is F=E-TS. E is the sum of the following terms:
     one-electron contribution =   -1369.68704327 Ry
     hartree contribution      =     692.90958855 Ry
     xc contribution           =     -35.39606314 Ry
     ewald contribution        =     680.77664285 Ry

     convergence has been achieved in  22 iterations

     negative rho (up, down):  1.484E-03 0.000E+00

     Forces acting on atoms (cartesian axes, Ry/au):

     atom    1 type  1   force =     0.00000000    0.00000000  -21.48169048
     atom    2 type  1   force =     0.00000000    0.00000000  -21.48169048
     atom    3 type  1   force =     0.00000000    0.00000000   -0.00148275
     atom    4 type  1   force =     0.00000000    0.00000000   -0.00148275
     atom    5 type  1   force =     0.00000000   -0.00000000   21.48317323
     atom    6 type  1   force =     0.00000000    0.00000000   21.48317323

     Total force =    42.964864     Total SCF correction =     0.000565


     Computing stress (Cartesian axis) and pressure


     negative rho (up, down):  1.484E-03 0.000E+00
          total   stress  (Ry/bohr**3)                   (kbar)     P=     8704.90
   0.01249988  -0.00000000   0.00000000         1838.80       -0.00        0.00
  -0.00000000   0.01249988  -0.00000000           -0.00     1838.80       -0.00
  -0.00000000   0.00000000   0.15252429           -0.00        0.00    22437.10


     Writing all to output data dir /home/rfa/Skripsi/DFT/dft-graphene/tmp/gr-aa-3L.save/ :
     XML data file, charge density, pseudopotentials, collected wavefunctions

     init_run     :      0.81s CPU      0.82s WALL (       1 calls)
     electrons    :     68.35s CPU     38.84s WALL (       1 calls)
     forces       :      0.28s CPU      0.16s WALL (       1 calls)
     stress       :      1.04s CPU      0.57s WALL (       1 calls)

     Called by init_run:
     wfcinit      :      0.58s CPU      0.42s WALL (       1 calls)
     potinit      :      0.02s CPU      0.03s WALL (       1 calls)
     hinit0       :      0.14s CPU      0.30s WALL (       1 calls)

     Called by electrons:
     c_bands      :     60.96s CPU     34.56s WALL (      22 calls)
     sum_band     :      6.55s CPU      3.52s WALL (      22 calls)
     v_of_rho     :      0.30s CPU      0.32s WALL (      23 calls)
     newd         :      0.31s CPU      0.28s WALL (      23 calls)
     mix_rho      :      0.21s CPU      0.16s WALL (      22 calls)

     Called by c_bands:
     init_us_2    :      1.47s CPU      0.76s WALL (     893 calls)
     cegterg      :     59.09s CPU     33.55s WALL (     419 calls)

     Called by *egterg:
     cdiaghg      :      2.88s CPU      1.51s WALL (    3713 calls)
     h_psi        :     42.63s CPU     25.06s WALL (    3732 calls)
     s_psi        :      2.85s CPU      1.49s WALL (    3732 calls)
     g_psi        :      0.38s CPU      0.19s WALL (    3294 calls)

     Called by h_psi:
     h_psi:calbec :      5.05s CPU      3.14s WALL (    3732 calls)
     vloc_psi     :     33.44s CPU     19.71s WALL (    3732 calls)
     add_vuspsi   :      3.60s CPU      1.90s WALL (    3732 calls)

     General routines
     calbec       :      6.08s CPU      3.69s WALL (    4473 calls)
     fft          :      0.24s CPU      0.40s WALL (     278 calls)
     ffts         :      0.02s CPU      0.01s WALL (      22 calls)
     fftw         :     32.73s CPU     19.22s WALL (   66040 calls)

     Parallel routines

     PWSCF        :   1m10.65s CPU     41.00s WALL


   This run was terminated on:  14:38:18  16Apr2025            

=------------------------------------------------------------------------------=
   JOB DONE.
=------------------------------------------------------------------------------=
