
     Program PWSCF v.7.4.1 starts on 16Apr2025 at 15: 4:47 

     This program is part of the open-source Quantum ESPRESSO suite
     for quantum simulation of materials; please cite
         "P. Giannozzi et al., J. Phys.:Condens. Matter 21 395502 (2009);
         "P. Giannozzi et al., J. Phys.:Condens. Matter 29 465901 (2017);
         "P. Giannozzi et al., J. Chem. Phys. 152 154105 (2020);
          URL http://www.quantum-espresso.org", 
     in publications or presentations arising from this work. More details at
     http://www.quantum-espresso.org/quote

     Parallel version (MPI), running on     7 processors

     MPI processes distributed on     1 nodes
     15544 MiB available memory on the printing compute node when the environment starts

     Waiting for input...
     Reading input from standard input

     Current dimensions of program PWSCF are:
     Max number of different atomic species (ntypx) = 10
     Max number of k-points (npk) =  40000
     Max angular momentum in pseudopotentials (lmaxx) =  4

     R & G space division:  proc/nbgrp/npool/nimage =       7
     Subspace diagonalization in iterative solution of the eigenvalue problem:
     a serial algorithm will be used


     Parallelization info
     --------------------
     sticks:   dense  smooth     PW     G-vecs:    dense   smooth      PW
     Min          54      54     17                 5366     5366     925
     Max          55      55     18                 5395     5395     942
     Sum         379     379    121                37615    37615    6525

     Using Slab Decomposition



     bravais-lattice index     =            4
     lattice parameter (alat)  =       4.6561  a.u.
     unit-cell volume          =     532.1899 (a.u.)^3
     number of atoms/cell      =            2
     number of atomic types    =            1
     number of electrons       =         8.00
     number of Kohn-Sham states=            8
     kinetic-energy cutoff     =      65.0000  Ry
     charge density cutoff     =     260.0000  Ry
     scf convergence threshold =      1.0E-08
     mixing beta               =       0.7000
     number of iterations used =            8  plain     mixing
     Exchange-correlation= PBE
                           (   1   4   3   4   0   0   0)

     celldm(1)=   4.656107  celldm(2)=   0.000000  celldm(3)=   6.087896
     celldm(4)=   0.000000  celldm(5)=   0.000000  celldm(6)=   0.000000

     crystal axes: (cart. coord. in units of alat)
               a(1) = (   1.000000   0.000000   0.000000 )  
               a(2) = (  -0.500000   0.866025   0.000000 )  
               a(3) = (   0.000000   0.000000   6.087896 )  

     reciprocal axes: (cart. coord. in units 2 pi/alat)
               b(1) = (  1.000000  0.577350 -0.000000 )  
               b(2) = (  0.000000  1.154701  0.000000 )  
               b(3) = (  0.000000 -0.000000  0.164260 )  


     PseudoPot. # 1 for C  read from file:
     /home/rfa/Skripsi/DFT/dft-graphene/pseudo/C.pbe-n-rrkjus_psl.0.1.UPF
     MD5 check sum: 96a6a315177d77e6c95bf6fd3870f9e3
     Pseudo is Ultrasoft + core correction, Zval =  4.0
     Generated using &quot;atomic&quot; code by A. Dal Corso  v.6.3MaX
     Using radial grid of 1073 points,  4 beta functions with: 
                l(1) =   0
                l(2) =   0
                l(3) =   1
                l(4) =   1
     Q(r) pseudized with 0 coefficients 


     atomic species   valence    mass     pseudopotential
     C                 4.00    12.01070     C ( 1.00)

     24 Sym. Ops., with inversion, found



   Cartesian axes

     site n.     atom                  positions (alat units)
         1        C      tau(   1) = (   0.0000000   0.5773503   3.0439478  )
         2        C      tau(   2) = (   0.5000000   0.2886751   3.0439478  )

     number of k points=    19  Marzari-Vanderbilt smearing, width (Ry)=  0.0200
                       cart. coord. in units 2pi/alat
        k(    1) = (   0.0000000   0.0000000   0.0000000), wk =   0.0138889
        k(    2) = (   0.0000000   0.0962250   0.0000000), wk =   0.0833333
        k(    3) = (   0.0000000   0.1924501   0.0000000), wk =   0.0833333
        k(    4) = (   0.0000000   0.2886751   0.0000000), wk =   0.0833333
        k(    5) = (   0.0000000   0.3849002   0.0000000), wk =   0.0833333
        k(    6) = (   0.0000000   0.4811252   0.0000000), wk =   0.0833333
        k(    7) = (   0.0000000  -0.5773503   0.0000000), wk =   0.0416667
        k(    8) = (   0.0833333   0.1443376   0.0000000), wk =   0.0833333
        k(    9) = (   0.0833333   0.2405626   0.0000000), wk =   0.1666667
        k(   10) = (   0.0833333   0.3367877   0.0000000), wk =   0.1666667
        k(   11) = (   0.0833333   0.4330127   0.0000000), wk =   0.1666667
        k(   12) = (   0.0833333   0.5292377   0.0000000), wk =   0.1666667
        k(   13) = (   0.1666667   0.2886751   0.0000000), wk =   0.0833333
        k(   14) = (   0.1666667   0.3849002   0.0000000), wk =   0.1666667
        k(   15) = (   0.1666667   0.4811252   0.0000000), wk =   0.1666667
        k(   16) = (   0.1666667   0.5773503   0.0000000), wk =   0.0833333
        k(   17) = (   0.2500000   0.4330127   0.0000000), wk =   0.0833333
        k(   18) = (   0.2500000   0.5292377   0.0000000), wk =   0.1666667
        k(   19) = (   0.3333333   0.5773503   0.0000000), wk =   0.0277778

     Dense  grid:    37615 G-vectors     FFT dimensions: (  24,  24, 150)

     Estimated max dynamical RAM per process >       9.38 MB

     Estimated total dynamical RAM >      65.64 MB

     Check: negative core charge=   -0.000003

     Initial potential from superposition of free atoms

     starting charge       7.9999, renormalised to       8.0000

     negative rho (up, down):  1.166E-05 0.000E+00
     Starting wfcs are    8 randomized atomic wfcs

     total cpu time spent up to now is        0.7 secs

     per-process dynamical memory:    11.4 Mb

     Self-consistent Calculation

     iteration #  1     ecut=    65.00 Ry     beta= 0.70
     Davidson diagonalization with overlap
     ethr =  1.00E-02,  avg # of iterations =  7.5

     Threshold (ethr) on eigenvalues was too large:
     Diagonalizing with lowered threshold

     Davidson diagonalization with overlap
     ethr =  7.97E-04,  avg # of iterations =  6.3

     negative rho (up, down):  2.572E-05 0.000E+00

     total cpu time spent up to now is        1.4 secs

     total energy              =     -23.88180410 Ry
     estimated scf accuracy    <       0.19434002 Ry

     iteration #  2     ecut=    65.00 Ry     beta= 0.70
     Davidson diagonalization with overlap
     ethr =  2.43E-03,  avg # of iterations =  2.3

     negative rho (up, down):  3.210E-05 0.000E+00

     total cpu time spent up to now is        1.7 secs

     total energy              =     -23.89167699 Ry
     estimated scf accuracy    <       0.00618830 Ry

     iteration #  3     ecut=    65.00 Ry     beta= 0.70
     Davidson diagonalization with overlap
     c_bands:  2 eigenvalues not converged
     c_bands:  1 eigenvalues not converged
     c_bands:  4 eigenvalues not converged
     c_bands:  1 eigenvalues not converged
     c_bands:  1 eigenvalues not converged
     c_bands:  2 eigenvalues not converged
     c_bands:  2 eigenvalues not converged
     c_bands:  1 eigenvalues not converged
     c_bands:  2 eigenvalues not converged
     c_bands:  1 eigenvalues not converged
     ethr =  7.74E-05,  avg # of iterations = 18.3

     negative rho (up, down):  3.064E-05 0.000E+00

     total cpu time spent up to now is        2.8 secs

     total energy              =     -23.91467598 Ry
     estimated scf accuracy    <       0.00852884 Ry

     iteration #  4     ecut=    65.00 Ry     beta= 0.70
     Davidson diagonalization with overlap
     ethr =  7.74E-05,  avg # of iterations =  4.2

     negative rho (up, down):  2.907E-05 0.000E+00

     total cpu time spent up to now is        3.1 secs

     total energy              =     -23.91919428 Ry
     estimated scf accuracy    <       0.01131146 Ry

     iteration #  5     ecut=    65.00 Ry     beta= 0.70
     Davidson diagonalization with overlap
     ethr =  7.74E-05,  avg # of iterations =  1.3

     negative rho (up, down):  3.812E-05 0.000E+00

     total cpu time spent up to now is        3.3 secs

     total energy              =     -23.91147929 Ry
     estimated scf accuracy    <       0.01830665 Ry

     iteration #  6     ecut=    65.00 Ry     beta= 0.70
     Davidson diagonalization with overlap
     ethr =  7.74E-05,  avg # of iterations =  1.8

     negative rho (up, down):  4.407E-05 0.000E+00

     total cpu time spent up to now is        3.6 secs

     total energy              =     -23.91102528 Ry
     estimated scf accuracy    <       0.00640414 Ry

     iteration #  7     ecut=    65.00 Ry     beta= 0.70
     Davidson diagonalization with overlap
     ethr =  7.74E-05,  avg # of iterations =  1.3

     negative rho (up, down):  4.294E-05 0.000E+00

     total cpu time spent up to now is        3.8 secs

     total energy              =     -23.91133421 Ry
     estimated scf accuracy    <       0.00401186 Ry

     iteration #  8     ecut=    65.00 Ry     beta= 0.70
     Davidson diagonalization with overlap
     ethr =  5.01E-05,  avg # of iterations =  1.3

     negative rho (up, down):  4.362E-05 0.000E+00

     total cpu time spent up to now is        4.0 secs

     total energy              =     -23.91134274 Ry
     estimated scf accuracy    <       0.00410542 Ry

     iteration #  9     ecut=    65.00 Ry     beta= 0.70
     Davidson diagonalization with overlap
     ethr =  5.01E-05,  avg # of iterations =  1.1

     negative rho (up, down):  4.345E-05 0.000E+00

     total cpu time spent up to now is        4.2 secs

     total energy              =     -23.91137671 Ry
     estimated scf accuracy    <       0.00380978 Ry

     iteration # 10     ecut=    65.00 Ry     beta= 0.70
     Davidson diagonalization with overlap
     ethr =  4.76E-05,  avg # of iterations =  1.2

     negative rho (up, down):  4.713E-05 0.000E+00

     total cpu time spent up to now is        4.5 secs

     total energy              =     -23.91124779 Ry
     estimated scf accuracy    <       0.00376964 Ry

     iteration # 11     ecut=    65.00 Ry     beta= 0.70
     Davidson diagonalization with overlap
     ethr =  4.71E-05,  avg # of iterations =  1.1

     negative rho (up, down):  9.462E-05 0.000E+00

     total cpu time spent up to now is        4.7 secs

     total energy              =     -23.90950005 Ry
     estimated scf accuracy    <       0.00328321 Ry

     iteration # 12     ecut=    65.00 Ry     beta= 0.70
     Davidson diagonalization with overlap
     ethr =  4.10E-05,  avg # of iterations =  1.4

     negative rho (up, down):  9.391E-05 0.000E+00

     total cpu time spent up to now is        4.9 secs

     total energy              =     -23.90969792 Ry
     estimated scf accuracy    <       0.00014824 Ry

     iteration # 13     ecut=    65.00 Ry     beta= 0.70
     Davidson diagonalization with overlap
     c_bands:  1 eigenvalues not converged
     c_bands:  1 eigenvalues not converged
     c_bands:  1 eigenvalues not converged
     c_bands:  1 eigenvalues not converged
     c_bands:  1 eigenvalues not converged
     ethr =  1.85E-06,  avg # of iterations = 14.0

     negative rho (up, down):  9.371E-05 0.000E+00

     total cpu time spent up to now is        5.7 secs

     total energy              =     -23.91011281 Ry
     estimated scf accuracy    <       0.00001727 Ry

     iteration # 14     ecut=    65.00 Ry     beta= 0.70
     Davidson diagonalization with overlap
     c_bands:  1 eigenvalues not converged
     ethr =  2.16E-07,  avg # of iterations =  6.9

     negative rho (up, down):  9.296E-05 0.000E+00

     total cpu time spent up to now is        6.0 secs

     total energy              =     -23.91017126 Ry
     estimated scf accuracy    <       0.00008870 Ry

     iteration # 15     ecut=    65.00 Ry     beta= 0.70
     Davidson diagonalization with overlap
     ethr =  2.16E-07,  avg # of iterations =  3.2

     negative rho (up, down):  9.198E-05 0.000E+00

     total cpu time spent up to now is        6.3 secs

     total energy              =     -23.91020095 Ry
     estimated scf accuracy    <       0.00018234 Ry

     iteration # 16     ecut=    65.00 Ry     beta= 0.70
     Davidson diagonalization with overlap
     ethr =  2.16E-07,  avg # of iterations =  1.7

     negative rho (up, down):  9.418E-05 0.000E+00

     total cpu time spent up to now is        6.6 secs

     total energy              =     -23.91032829 Ry
     estimated scf accuracy    <       0.00023156 Ry

     iteration # 17     ecut=    65.00 Ry     beta= 0.70
     Davidson diagonalization with overlap
     ethr =  2.16E-07,  avg # of iterations =  5.0

     negative rho (up, down):  9.514E-05 0.000E+00

     total cpu time spent up to now is        6.9 secs

     total energy              =     -23.91038516 Ry
     estimated scf accuracy    <       0.00055729 Ry

     iteration # 18     ecut=    65.00 Ry     beta= 0.70
     Davidson diagonalization with overlap
     ethr =  2.16E-07,  avg # of iterations =  1.9

     negative rho (up, down):  9.634E-05 0.000E+00

     total cpu time spent up to now is        7.2 secs

     total energy              =     -23.91039479 Ry
     estimated scf accuracy    <       0.00062480 Ry

     iteration # 19     ecut=    65.00 Ry     beta= 0.70
     Davidson diagonalization with overlap
     ethr =  2.16E-07,  avg # of iterations =  1.1

     negative rho (up, down):  9.637E-05 0.000E+00

     total cpu time spent up to now is        7.4 secs

     total energy              =     -23.91032978 Ry
     estimated scf accuracy    <       0.00064604 Ry

     iteration # 20     ecut=    65.00 Ry     beta= 0.70
     Davidson diagonalization with overlap
     ethr =  2.16E-07,  avg # of iterations =  1.1

     negative rho (up, down):  9.480E-05 0.000E+00

     total cpu time spent up to now is        7.7 secs

     total energy              =     -23.91033624 Ry
     estimated scf accuracy    <       0.00053738 Ry

     iteration # 21     ecut=    65.00 Ry     beta= 0.70
     Davidson diagonalization with overlap
     ethr =  2.16E-07,  avg # of iterations =  1.1

     negative rho (up, down):  9.731E-05 0.000E+00

     total cpu time spent up to now is        7.9 secs

     total energy              =     -23.91005424 Ry
     estimated scf accuracy    <       0.00054883 Ry

     iteration # 22     ecut=    65.00 Ry     beta= 0.70
     Davidson diagonalization with overlap
     ethr =  2.16E-07,  avg # of iterations =  4.7

     negative rho (up, down):  9.736E-05 0.000E+00

     total cpu time spent up to now is        8.3 secs

     total energy              =     -23.91008983 Ry
     estimated scf accuracy    <       0.00003085 Ry

     iteration # 23     ecut=    65.00 Ry     beta= 0.70
     Davidson diagonalization with overlap
     ethr =  2.16E-07,  avg # of iterations =  1.8

     negative rho (up, down):  9.508E-05 0.000E+00

     total cpu time spent up to now is        8.6 secs

     total energy              =     -23.91008898 Ry
     estimated scf accuracy    <       0.00000599 Ry

     iteration # 24     ecut=    65.00 Ry     beta= 0.70
     Davidson diagonalization with overlap
     c_bands:  1 eigenvalues not converged
     ethr =  7.49E-08,  avg # of iterations =  4.9

     negative rho (up, down):  9.506E-05 0.000E+00

     total cpu time spent up to now is        8.9 secs

     total energy              =     -23.91009187 Ry
     estimated scf accuracy    <       0.00000036 Ry

     iteration # 25     ecut=    65.00 Ry     beta= 0.70
     Davidson diagonalization with overlap
     ethr =  4.47E-09,  avg # of iterations =  4.2

     negative rho (up, down):  9.497E-05 0.000E+00

     total cpu time spent up to now is        9.2 secs

     total energy              =     -23.91009269 Ry
     estimated scf accuracy    <       0.00000003 Ry

     iteration # 26     ecut=    65.00 Ry     beta= 0.70
     Davidson diagonalization with overlap
     ethr =  3.95E-10,  avg # of iterations =  4.8

     negative rho (up, down):  9.508E-05 0.000E+00

     total cpu time spent up to now is        9.6 secs

     total energy              =     -23.91009272 Ry
     estimated scf accuracy    <       0.00000003 Ry

     iteration # 27     ecut=    65.00 Ry     beta= 0.70
     Davidson diagonalization with overlap
     ethr =  3.25E-10,  avg # of iterations =  1.8

     negative rho (up, down):  9.505E-05 0.000E+00

     total cpu time spent up to now is        9.8 secs

     End of self-consistent calculation

          k = 0.0000 0.0000 0.0000 (  4651 PWs)   bands (ev):

   -21.2478  -9.3502  -4.7896  -4.7896   1.4056   2.2215   2.4726   4.4495

          k = 0.0000 0.0962 0.0000 (  4651 PWs)   bands (ev):

   -21.0839  -9.1540  -5.4384  -5.1280   1.6300   2.4475   2.6990   4.6728

          k = 0.0000 0.1925 0.0000 (  4667 PWs)   bands (ev):

   -20.5939  -8.5705  -7.0726  -5.9204   2.3033   3.1243   3.3785   5.3397

          k = 0.0000 0.2887 0.0000 (  4686 PWs)   bands (ev):

   -19.7836  -9.1683  -7.6190  -6.8003   3.4234   4.2381   4.5100   5.5386

          k = 0.0000 0.3849 0.0000 (  4690 PWs)   bands (ev):

   -18.6650 -11.3699  -7.5339  -6.3499   3.1997   4.9808   5.8507   5.9666

          k = 0.0000 0.4811 0.0000 (  4700 PWs)   bands (ev):

   -17.2690 -13.4695  -8.0070  -4.9261   1.0626   5.7625   7.0011   7.8483

          k = 0.0000-0.5774 0.0000 (  4724 PWs)   bands (ev):

   -16.0023 -14.9786  -8.1694  -4.0808  -0.0363   5.6848   9.3312   9.4687

          k = 0.0833 0.1443 0.0000 (  4666 PWs)   bands (ev):

   -20.7569  -8.7640  -6.4697  -5.8052   2.0791   2.8991   3.1521   5.1187

          k = 0.0833 0.2406 0.0000 (  4682 PWs)   bands (ev):

   -20.1068  -8.1765  -7.9954  -6.8030   2.9764   3.7988   4.0584   5.9955

          k = 0.0833 0.3368 0.0000 (  4711 PWs)   bands (ev):

   -19.1423 -10.2475  -7.6892  -6.8786   4.2114   4.3183   5.1701   5.4156

          k = 0.0833 0.4330 0.0000 (  4717 PWs)   bands (ev):

   -17.8819 -12.3693  -8.3240  -5.4980   2.0107   6.0839   6.6031   6.9433

          k = 0.0833 0.5292 0.0000 (  4726 PWs)   bands (ev):

   -16.4014 -14.3113  -8.6524  -4.1876   0.2403   6.4212   8.3108   9.1247

          k = 0.1667 0.2887 0.0000 (  4706 PWs)   bands (ev):

   -19.3024  -9.5044  -8.1647  -7.0575   4.0964   4.6705   4.9180   5.1915

          k = 0.1667 0.3849 0.0000 (  4727 PWs)   bands (ev):

   -18.1947 -11.2304  -9.2204  -5.8035   2.7207   5.6562   6.4664   6.7744

          k = 0.1667 0.4811 0.0000 (  4736 PWs)   bands (ev):

   -16.8186 -13.1410  -9.7957  -4.3757   0.8065   7.6325   8.3230   8.3780

          k = 0.1667 0.5774 0.0000 (  4744 PWs)   bands (ev):

   -15.5816 -14.5785  -9.9804  -3.4822  -0.2627   8.2261   9.8772   9.9056

          k = 0.2500 0.4330 0.0000 (  4736 PWs)   bands (ev):

   -16.9665 -12.2633 -10.7045  -4.4598   1.1047   7.4194   8.0969   8.5780

          k = 0.2500 0.5292 0.0000 (  4754 PWs)   bands (ev):

   -15.5434 -13.6853 -11.4114  -3.0730  -0.4168   9.1528   9.5394  10.4797

          k = 0.3333 0.5774 0.0000 (  4740 PWs)   bands (ev):

   -14.3254 -14.3254 -12.3105  -1.7159  -1.7159   8.9016  11.1581  11.1581

     the Fermi energy is    -1.6780 ev

!    total energy              =     -23.91009272 Ry
     estimated scf accuracy    <          1.4E-09 Ry
     smearing contrib. (-TS)   =      -0.00018232 Ry
     internal energy E=F+TS    =     -23.90991040 Ry

     The total energy is F=E-TS. E is the sum of the following terms:
     one-electron contribution =    -157.39736673 Ry
     hartree contribution      =      80.16112471 Ry
     xc contribution           =      -8.30331549 Ry
     ewald contribution        =      61.62964712 Ry

     convergence has been achieved in  27 iterations

     negative rho (up, down):  9.505E-05 0.000E+00

     Forces acting on atoms (cartesian axes, Ry/au):

     atom    1 type  1   force =     0.00000000    0.00000000    0.00000000
     atom    2 type  1   force =     0.00000000   -0.00000000    0.00000000

     Total force =     0.000000     Total SCF correction =     0.000000


     Computing stress (Cartesian axis) and pressure


     negative rho (up, down):  9.505E-05 0.000E+00
          total   stress  (Ry/bohr**3)                   (kbar)     P=        0.01
   0.00000108   0.00000000  -0.00000000            0.16        0.00       -0.00
   0.00000000   0.00000108   0.00000000            0.00        0.16        0.00
   0.00000000  -0.00000000  -0.00000192            0.00       -0.00       -0.28


     Writing all to output data dir /home/rfa/Skripsi/DFT/dft-graphene/tmp/gr-1L.save/ :
     XML data file, charge density, pseudopotentials, collected wavefunctions

     init_run     :      0.45s CPU      0.60s WALL (       1 calls)
     electrons    :     16.51s CPU      9.17s WALL (       1 calls)
     forces       :      0.06s CPU      0.03s WALL (       1 calls)
     stress       :      0.15s CPU      0.10s WALL (       1 calls)

     Called by init_run:
     wfcinit      :      0.15s CPU      0.08s WALL (       1 calls)
     potinit      :      0.01s CPU      0.01s WALL (       1 calls)
     hinit0       :      0.26s CPU      0.47s WALL (       1 calls)

     Called by electrons:
     c_bands      :     13.48s CPU      7.36s WALL (      28 calls)
     sum_band     :      2.35s CPU      1.25s WALL (      28 calls)
     v_of_rho     :      0.21s CPU      0.22s WALL (      28 calls)
     newd         :      0.22s CPU      0.20s WALL (      28 calls)
     mix_rho      :      0.21s CPU      0.12s WALL (      28 calls)

     Called by c_bands:
     init_us_2    :      0.36s CPU      0.18s WALL (    1121 calls)
     cegterg      :     12.80s CPU      6.94s WALL (     532 calls)

     Called by *egterg:
     cdiaghg      :      0.63s CPU      0.32s WALL (    2548 calls)
     h_psi        :     10.46s CPU      5.71s WALL (    2586 calls)
     s_psi        :      0.15s CPU      0.08s WALL (    2586 calls)
     g_psi        :      0.10s CPU      0.06s WALL (    2035 calls)

     Called by h_psi:
     h_psi:calbec :      0.63s CPU      0.34s WALL (    2586 calls)
     vloc_psi     :      9.43s CPU      5.15s WALL (    2586 calls)
     add_vuspsi   :      0.25s CPU      0.14s WALL (    2586 calls)

     General routines
     calbec       :      0.72s CPU      0.38s WALL (    3441 calls)
     fft          :      0.33s CPU      0.55s WALL (     334 calls)
     ffts         :      0.02s CPU      0.01s WALL (      28 calls)
     fftw         :      9.40s CPU      5.14s WALL (   30660 calls)

     Parallel routines

     PWSCF        :     17.25s CPU     10.19s WALL


   This run was terminated on:  15: 4:57  16Apr2025            

=------------------------------------------------------------------------------=
   JOB DONE.
=------------------------------------------------------------------------------=
