
     Program PWSCF v.7.4.1 starts on 21Apr2025 at 23:37: 4 

     This program is part of the open-source Quantum ESPRESSO suite
     for quantum simulation of materials; please cite
         "P. Giannozzi et al., J. Phys.:Condens. Matter 21 395502 (2009);
         "P. Giannozzi et al., J. Phys.:Condens. Matter 29 465901 (2017);
         "P. Giannozzi et al., J. Chem. Phys. 152 154105 (2020);
          URL http://www.quantum-espresso.org", 
     in publications or presentations arising from this work. More details at
     http://www.quantum-espresso.org/quote

     Parallel version (MPI), running on     7 processors

     MPI processes distributed on     1 nodes
     13815 MiB available memory on the printing compute node when the environment starts

     Waiting for input...
     Reading input from standard input

     Current dimensions of program PWSCF are:
     Max number of different atomic species (ntypx) = 10
     Max number of k-points (npk) =  40000
     Max angular momentum in pseudopotentials (lmaxx) =  4

     R & G space division:  proc/nbgrp/npool/nimage =       7
     Subspace diagonalization in iterative solution of the eigenvalue problem:
     a serial algorithm will be used


     Parallelization info
     --------------------
     sticks:   dense  smooth     PW     G-vecs:    dense   smooth      PW
     Min          21      21      7                 1345     1345     271
     Max          22      22      8                 1372     1372     290
     Sum         151     151     55                 9519     9519    1981

     Using Slab Decomposition



     bravais-lattice index     =            4
     lattice parameter (alat)  =       4.6561  a.u.
     unit-cell volume          =     532.1899 (a.u.)^3
     number of atoms/cell      =            2
     number of atomic types    =            1
     number of electrons       =         8.00
     number of Kohn-Sham states=            8
     kinetic-energy cutoff     =      26.0000  Ry
     charge density cutoff     =     104.0000  Ry
     scf convergence threshold =      1.0E-08
     mixing beta               =       0.7000
     number of iterations used =            8  plain     mixing
     Exchange-correlation= PBE
                           (   1   4   3   4   0   0   0)

     celldm(1)=   4.656107  celldm(2)=   0.000000  celldm(3)=   6.087896
     celldm(4)=   0.000000  celldm(5)=   0.000000  celldm(6)=   0.000000

     crystal axes: (cart. coord. in units of alat)
               a(1) = (   1.000000   0.000000   0.000000 )  
               a(2) = (  -0.500000   0.866025   0.000000 )  
               a(3) = (   0.000000   0.000000   6.087896 )  

     reciprocal axes: (cart. coord. in units 2 pi/alat)
               b(1) = (  1.000000  0.577350 -0.000000 )  
               b(2) = (  0.000000  1.154701  0.000000 )  
               b(3) = (  0.000000 -0.000000  0.164260 )  


     PseudoPot. # 1 for C  read from file:
     /run/media/rfa/SATA/Skripsi/DFT/dft-graphene/pseudo/C.pbe-n-rrkjus_psl.0.1.UPF
     MD5 check sum: 96a6a315177d77e6c95bf6fd3870f9e3
     Pseudo is Ultrasoft + core correction, Zval =  4.0
     Generated using &quot;atomic&quot; code by A. Dal Corso  v.6.3MaX
     Using radial grid of 1073 points,  4 beta functions with: 
                l(1) =   0
                l(2) =   0
                l(3) =   1
                l(4) =   1
     Q(r) pseudized with 0 coefficients 


     atomic species   valence    mass     pseudopotential
     C                 4.00    12.01070     C ( 1.00)

     24 Sym. Ops., with inversion, found



   Cartesian axes

     site n.     atom                  positions (alat units)
         1        C      tau(   1) = (   0.0000000   0.5773503   3.0439478  )
         2        C      tau(   2) = (   0.5000000   0.2886751   3.0439478  )

     number of k points=    19  Marzari-Vanderbilt smearing, width (Ry)=  0.0200
                       cart. coord. in units 2pi/alat
        k(    1) = (   0.0000000   0.0000000   0.0000000), wk =   0.0138889
        k(    2) = (   0.0000000   0.0962250   0.0000000), wk =   0.0833333
        k(    3) = (   0.0000000   0.1924501   0.0000000), wk =   0.0833333
        k(    4) = (   0.0000000   0.2886751   0.0000000), wk =   0.0833333
        k(    5) = (   0.0000000   0.3849002   0.0000000), wk =   0.0833333
        k(    6) = (   0.0000000   0.4811252   0.0000000), wk =   0.0833333
        k(    7) = (   0.0000000  -0.5773503   0.0000000), wk =   0.0416667
        k(    8) = (   0.0833333   0.1443376   0.0000000), wk =   0.0833333
        k(    9) = (   0.0833333   0.2405626   0.0000000), wk =   0.1666667
        k(   10) = (   0.0833333   0.3367877   0.0000000), wk =   0.1666667
        k(   11) = (   0.0833333   0.4330127   0.0000000), wk =   0.1666667
        k(   12) = (   0.0833333   0.5292377   0.0000000), wk =   0.1666667
        k(   13) = (   0.1666667   0.2886751   0.0000000), wk =   0.0833333
        k(   14) = (   0.1666667   0.3849002   0.0000000), wk =   0.1666667
        k(   15) = (   0.1666667   0.4811252   0.0000000), wk =   0.1666667
        k(   16) = (   0.1666667   0.5773503   0.0000000), wk =   0.0833333
        k(   17) = (   0.2500000   0.4330127   0.0000000), wk =   0.0833333
        k(   18) = (   0.2500000   0.5292377   0.0000000), wk =   0.1666667
        k(   19) = (   0.3333333   0.5773503   0.0000000), wk =   0.0277778

     Dense  grid:     9519 G-vectors     FFT dimensions: (  15,  15,  96)

     Estimated max dynamical RAM per process >       2.52 MB

     Estimated total dynamical RAM >      17.67 MB

     Check: negative core charge=   -0.000058

     Initial potential from superposition of free atoms

     starting charge       7.9999, renormalised to       8.0000

     negative rho (up, down):  5.615E-03 0.000E+00
     Starting wfcs are    8 randomized atomic wfcs

     total cpu time spent up to now is        0.4 secs

     per-process dynamical memory:     8.1 Mb

     Self-consistent Calculation

     iteration #  1     ecut=    26.00 Ry     beta= 0.70
     Davidson diagonalization with overlap
     ethr =  1.00E-02,  avg # of iterations =  9.7

     negative rho (up, down):  9.009E-04 0.000E+00

     total cpu time spent up to now is        0.6 secs

     total energy              =     -23.85439224 Ry
     estimated scf accuracy    <       0.13819183 Ry

     iteration #  2     ecut=    26.00 Ry     beta= 0.70
     Davidson diagonalization with overlap
     ethr =  1.73E-03,  avg # of iterations =  4.1

     negative rho (up, down):  5.121E-04 0.000E+00

     total cpu time spent up to now is        0.7 secs

     total energy              =     -23.86430274 Ry
     estimated scf accuracy    <       0.00622429 Ry

     iteration #  3     ecut=    26.00 Ry     beta= 0.70
     Davidson diagonalization with overlap
     c_bands:  1 eigenvalues not converged
     c_bands:  1 eigenvalues not converged
     c_bands:  1 eigenvalues not converged
     c_bands:  1 eigenvalues not converged
     ethr =  7.78E-05,  avg # of iterations = 13.7

     negative rho (up, down):  6.860E-04 0.000E+00

     total cpu time spent up to now is        0.8 secs

     total energy              =     -23.86800971 Ry
     estimated scf accuracy    <       0.00089793 Ry

     iteration #  4     ecut=    26.00 Ry     beta= 0.70
     Davidson diagonalization with overlap
     c_bands:  1 eigenvalues not converged
     ethr =  1.12E-05,  avg # of iterations =  7.3

     negative rho (up, down):  7.578E-04 0.000E+00

     total cpu time spent up to now is        1.0 secs

     total energy              =     -23.86814909 Ry
     estimated scf accuracy    <       0.00049292 Ry

     iteration #  5     ecut=    26.00 Ry     beta= 0.70
     Davidson diagonalization with overlap
     ethr =  6.16E-06,  avg # of iterations =  3.9

     negative rho (up, down):  7.528E-04 0.000E+00

     total cpu time spent up to now is        1.0 secs

     total energy              =     -23.86821298 Ry
     estimated scf accuracy    <       0.00000176 Ry

     iteration #  6     ecut=    26.00 Ry     beta= 0.70
     Davidson diagonalization with overlap
     ethr =  2.20E-08,  avg # of iterations =  6.4

     negative rho (up, down):  7.588E-04 0.000E+00

     total cpu time spent up to now is        1.1 secs

     total energy              =     -23.86821968 Ry
     estimated scf accuracy    <       0.00000236 Ry

     iteration #  7     ecut=    26.00 Ry     beta= 0.70
     Davidson diagonalization with overlap
     ethr =  2.20E-08,  avg # of iterations =  2.5

     negative rho (up, down):  7.599E-04 0.000E+00

     total cpu time spent up to now is        1.2 secs

     total energy              =     -23.86822020 Ry
     estimated scf accuracy    <       0.00000005 Ry

     iteration #  8     ecut=    26.00 Ry     beta= 0.70
     Davidson diagonalization with overlap
     ethr =  6.35E-10,  avg # of iterations =  3.8

     negative rho (up, down):  7.605E-04 0.000E+00

     total cpu time spent up to now is        1.3 secs

     End of self-consistent calculation

          k = 0.0000 0.0000 0.0000 (  1199 PWs)   bands (ev):

   -21.3708  -9.3670  -4.7929  -4.7929   0.7828   1.4807   1.7609   3.7775

          k = 0.0000 0.0962 0.0000 (  1187 PWs)   bands (ev):

   -21.2061  -9.1618  -5.4449  -5.1274   1.0100   1.7084   1.9866   4.0024

          k = 0.0000 0.1925 0.0000 (  1187 PWs)   bands (ev):

   -20.7131  -8.5793  -7.0903  -5.9210   1.6913   2.3890   2.6636   4.6699

          k = 0.0000 0.2887 0.0000 (  1183 PWs)   bands (ev):

   -19.8977  -9.2030  -7.6230  -6.8003   2.8257   3.5178   3.7907   5.5302

          k = 0.0000 0.3849 0.0000 (  1188 PWs)   bands (ev):

   -18.7730 -11.4241  -7.5370  -6.3515   3.2449   4.4099   5.1289   5.3577

          k = 0.0000 0.4811 0.0000 (  1198 PWs)   bands (ev):

   -17.3734 -13.5400  -8.0148  -4.9124   1.0884   5.6787   6.4491   7.1523

          k = 0.0000-0.5774 0.0000 (  1194 PWs)   bands (ev):

   -16.1114 -15.0422  -8.1748  -4.0753  -0.0224   5.5963   8.8773   8.9327

          k = 0.0833 0.1443 0.0000 (  1189 PWs)   bands (ev):

   -20.8772  -8.7724  -6.4886  -5.8105   1.4643   2.1623   2.4380   4.4484

          k = 0.0833 0.2406 0.0000 (  1190 PWs)   bands (ev):

   -20.2233  -8.2085  -8.0017  -6.8148   2.3723   3.0686   3.3406   5.3330

          k = 0.0833 0.3368 0.0000 (  1184 PWs)   bands (ev):

   -19.2518 -10.2925  -7.7008  -6.8802   3.7324   4.2198   4.5027   4.6920

          k = 0.0833 0.4330 0.0000 (  1190 PWs)   bands (ev):

   -17.9857 -12.4318  -8.3417  -5.4902   2.0516   5.5385   6.2411   6.4309

          k = 0.0833 0.5292 0.0000 (  1200 PWs)   bands (ev):

   -16.5046 -14.3864  -8.6702  -4.1667   0.2663   6.3426   7.7902   8.4718

          k = 0.1667 0.2887 0.0000 (  1184 PWs)   bands (ev):

   -19.4135  -9.5422  -8.1872  -7.0607   3.5062   4.1979   4.4681   4.7379

          k = 0.1667 0.3849 0.0000 (  1178 PWs)   bands (ev):

   -18.2969 -11.2855  -9.2443  -5.7930   2.7789   5.0897   5.7703   6.0427

          k = 0.1667 0.4811 0.0000 (  1198 PWs)   bands (ev):

   -16.9184 -13.2149  -9.8269  -4.3573   0.8499   7.1119   7.7499   8.0423

          k = 0.1667 0.5774 0.0000 (  1196 PWs)   bands (ev):

   -15.6844 -14.6476 -10.0131  -3.4514  -0.2320   8.1755   9.5024   9.5922

          k = 0.2500 0.4330 0.0000 (  1180 PWs)   bands (ev):

   -17.0634 -12.3309 -10.7297  -4.4457   1.1766   6.8885   7.4904   7.8321

          k = 0.2500 0.5292 0.0000 (  1200 PWs)   bands (ev):

   -15.6369 -13.7654 -11.4465  -3.0503  -0.3808   8.9500   9.0932  10.0246

          k = 0.3333 0.5774 0.0000 (  1212 PWs)   bands (ev):

   -14.4180 -14.4180 -12.3469  -1.6810  -1.6810   8.7831  11.0077  11.0080

     the Fermi energy is    -1.6431 ev

!    total energy              =     -23.86822022 Ry
     estimated scf accuracy    <          3.9E-09 Ry
     smearing contrib. (-TS)   =      -0.00018232 Ry
     internal energy E=F+TS    =     -23.86803790 Ry

     The total energy is F=E-TS. E is the sum of the following terms:
     one-electron contribution =    -157.30111369 Ry
     hartree contribution      =      80.09504158 Ry
     xc contribution           =      -8.29161287 Ry
     ewald contribution        =      61.62964708 Ry

     convergence has been achieved in   8 iterations

     negative rho (up, down):  7.605E-04 0.000E+00

     Forces acting on atoms (cartesian axes, Ry/au):

     atom    1 type  1   force =     0.00000000    0.00000000    0.00000000
     atom    2 type  1   force =    -0.00000000   -0.00000000    0.00000000

     Total force =     0.000000     Total SCF correction =     0.000000


     Computing stress (Cartesian axis) and pressure


     negative rho (up, down):  7.605E-04 0.000E+00
          total   stress  (Ry/bohr**3)                   (kbar)     P=      -67.41
  -0.00041860  -0.00000000   0.00000000          -61.58       -0.00        0.00
  -0.00000000  -0.00041860  -0.00000000           -0.00      -61.58       -0.00
   0.00000000  -0.00000000  -0.00053751            0.00       -0.00      -79.07


     Writing all to output data dir /run/media/rfa/SATA/Skripsi/DFT/dft-graphene/tmp/gr-1L.save/ :
     XML data file, charge density, pseudopotentials, collected wavefunctions

     init_run     :      0.21s CPU      0.36s WALL (       1 calls)
     electrons    :      1.38s CPU      0.85s WALL (       1 calls)
     forces       :      0.01s CPU      0.01s WALL (       1 calls)
     stress       :      0.02s CPU      0.02s WALL (       1 calls)

     Called by init_run:
     wfcinit      :      0.04s CPU      0.02s WALL (       1 calls)
     potinit      :      0.00s CPU      0.00s WALL (       1 calls)
     hinit0       :      0.16s CPU      0.32s WALL (       1 calls)

     Called by electrons:
     c_bands      :      1.22s CPU      0.72s WALL (       8 calls)
     sum_band     :      0.12s CPU      0.08s WALL (       8 calls)
     v_of_rho     :      0.02s CPU      0.02s WALL (       9 calls)
     newd         :      0.01s CPU      0.02s WALL (       9 calls)
     mix_rho      :      0.00s CPU      0.00s WALL (       8 calls)

     Called by c_bands:
     init_us_2    :      0.02s CPU      0.01s WALL (     361 calls)
     cegterg      :      1.15s CPU      0.66s WALL (     152 calls)

     Called by *egterg:
     cdiaghg      :      0.22s CPU      0.12s WALL (    1130 calls)
     h_psi        :      0.78s CPU      0.44s WALL (    1149 calls)
     s_psi        :      0.02s CPU      0.01s WALL (    1149 calls)
     g_psi        :      0.01s CPU      0.01s WALL (     978 calls)

     Called by h_psi:
     h_psi:calbec :      0.05s CPU      0.03s WALL (    1149 calls)
     vloc_psi     :      0.68s CPU      0.39s WALL (    1149 calls)
     add_vuspsi   :      0.02s CPU      0.01s WALL (    1149 calls)

     General routines
     calbec       :      0.05s CPU      0.03s WALL (    1624 calls)
     fft          :      0.15s CPU      0.31s WALL (     124 calls)
     ffts         :      0.00s CPU      0.00s WALL (       8 calls)
     fftw         :      0.64s CPU      0.36s WALL (   10776 calls)

     Parallel routines

     PWSCF        :      1.69s CPU      1.40s WALL


   This run was terminated on:  23:37: 5  21Apr2025            

=------------------------------------------------------------------------------=
   JOB DONE.
=------------------------------------------------------------------------------=
