
     Program PWSCF v.7.4.1 starts on 21Apr2025 at 23:38: 3 

     This program is part of the open-source Quantum ESPRESSO suite
     for quantum simulation of materials; please cite
         "P. Giannozzi et al., J. Phys.:Condens. Matter 21 395502 (2009);
         "P. Giannozzi et al., J. Phys.:Condens. Matter 29 465901 (2017);
         "P. Giannozzi et al., J. Chem. Phys. 152 154105 (2020);
          URL http://www.quantum-espresso.org", 
     in publications or presentations arising from this work. More details at
     http://www.quantum-espresso.org/quote

     Parallel version (MPI), running on     7 processors

     MPI processes distributed on     1 nodes
     13816 MiB available memory on the printing compute node when the environment starts

     Waiting for input...
     Reading input from standard input

     Current dimensions of program PWSCF are:
     Max number of different atomic species (ntypx) = 10
     Max number of k-points (npk) =  40000
     Max angular momentum in pseudopotentials (lmaxx) =  4

     R & G space division:  proc/nbgrp/npool/nimage =       7
     Subspace diagonalization in iterative solution of the eigenvalue problem:
     a serial algorithm will be used


     Parallelization info
     --------------------
     sticks:   dense  smooth     PW     G-vecs:    dense   smooth      PW
     Min          60      60     17                 6028     6028    1003
     Max          61      61     18                 6053     6053    1030
     Sum         421     421    121                42223    42223    7091

     Using Slab Decomposition



     bravais-lattice index     =            4
     lattice parameter (alat)  =       4.6561  a.u.
     unit-cell volume          =     532.1899 (a.u.)^3
     number of atoms/cell      =            2
     number of atomic types    =            1
     number of electrons       =         8.00
     number of Kohn-Sham states=            8
     kinetic-energy cutoff     =      70.0000  Ry
     charge density cutoff     =     280.0000  Ry
     scf convergence threshold =      1.0E-08
     mixing beta               =       0.7000
     number of iterations used =            8  plain     mixing
     Exchange-correlation= PBE
                           (   1   4   3   4   0   0   0)

     celldm(1)=   4.656107  celldm(2)=   0.000000  celldm(3)=   6.087896
     celldm(4)=   0.000000  celldm(5)=   0.000000  celldm(6)=   0.000000

     crystal axes: (cart. coord. in units of alat)
               a(1) = (   1.000000   0.000000   0.000000 )  
               a(2) = (  -0.500000   0.866025   0.000000 )  
               a(3) = (   0.000000   0.000000   6.087896 )  

     reciprocal axes: (cart. coord. in units 2 pi/alat)
               b(1) = (  1.000000  0.577350 -0.000000 )  
               b(2) = (  0.000000  1.154701  0.000000 )  
               b(3) = (  0.000000 -0.000000  0.164260 )  


     PseudoPot. # 1 for C  read from file:
     /run/media/rfa/SATA/Skripsi/DFT/dft-graphene/pseudo/C.pbe-n-rrkjus_psl.0.1.UPF
     MD5 check sum: 96a6a315177d77e6c95bf6fd3870f9e3
     Pseudo is Ultrasoft + core correction, Zval =  4.0
     Generated using &quot;atomic&quot; code by A. Dal Corso  v.6.3MaX
     Using radial grid of 1073 points,  4 beta functions with: 
                l(1) =   0
                l(2) =   0
                l(3) =   1
                l(4) =   1
     Q(r) pseudized with 0 coefficients 


     atomic species   valence    mass     pseudopotential
     C                 4.00    12.01070     C ( 1.00)

     24 Sym. Ops., with inversion, found



   Cartesian axes

     site n.     atom                  positions (alat units)
         1        C      tau(   1) = (   0.0000000   0.5773503   3.0439478  )
         2        C      tau(   2) = (   0.5000000   0.2886751   3.0439478  )

     number of k points=    19  Marzari-Vanderbilt smearing, width (Ry)=  0.0200
                       cart. coord. in units 2pi/alat
        k(    1) = (   0.0000000   0.0000000   0.0000000), wk =   0.0138889
        k(    2) = (   0.0000000   0.0962250   0.0000000), wk =   0.0833333
        k(    3) = (   0.0000000   0.1924501   0.0000000), wk =   0.0833333
        k(    4) = (   0.0000000   0.2886751   0.0000000), wk =   0.0833333
        k(    5) = (   0.0000000   0.3849002   0.0000000), wk =   0.0833333
        k(    6) = (   0.0000000   0.4811252   0.0000000), wk =   0.0833333
        k(    7) = (   0.0000000  -0.5773503   0.0000000), wk =   0.0416667
        k(    8) = (   0.0833333   0.1443376   0.0000000), wk =   0.0833333
        k(    9) = (   0.0833333   0.2405626   0.0000000), wk =   0.1666667
        k(   10) = (   0.0833333   0.3367877   0.0000000), wk =   0.1666667
        k(   11) = (   0.0833333   0.4330127   0.0000000), wk =   0.1666667
        k(   12) = (   0.0833333   0.5292377   0.0000000), wk =   0.1666667
        k(   13) = (   0.1666667   0.2886751   0.0000000), wk =   0.0833333
        k(   14) = (   0.1666667   0.3849002   0.0000000), wk =   0.1666667
        k(   15) = (   0.1666667   0.4811252   0.0000000), wk =   0.1666667
        k(   16) = (   0.1666667   0.5773503   0.0000000), wk =   0.0833333
        k(   17) = (   0.2500000   0.4330127   0.0000000), wk =   0.0833333
        k(   18) = (   0.2500000   0.5292377   0.0000000), wk =   0.1666667
        k(   19) = (   0.3333333   0.5773503   0.0000000), wk =   0.0277778

     Dense  grid:    42223 G-vectors     FFT dimensions: (  25,  25, 160)

     Estimated max dynamical RAM per process >      10.52 MB

     Estimated total dynamical RAM >      73.66 MB

     Check: negative core charge=   -0.000003

     Initial potential from superposition of free atoms

     starting charge       7.9999, renormalised to       8.0000

     negative rho (up, down):  3.452E-05 0.000E+00
     Starting wfcs are    8 randomized atomic wfcs

     total cpu time spent up to now is        0.7 secs

     per-process dynamical memory:    11.9 Mb

     Self-consistent Calculation

     iteration #  1     ecut=    70.00 Ry     beta= 0.70
     Davidson diagonalization with overlap
     ethr =  1.00E-02,  avg # of iterations =  6.9

     Threshold (ethr) on eigenvalues was too large:
     Diagonalizing with lowered threshold

     Davidson diagonalization with overlap
     ethr =  7.79E-04,  avg # of iterations =  7.2

     negative rho (up, down):  8.693E-06 0.000E+00

     total cpu time spent up to now is        1.6 secs

     total energy              =     -23.88127351 Ry
     estimated scf accuracy    <       0.19183085 Ry

     iteration #  2     ecut=    70.00 Ry     beta= 0.70
     Davidson diagonalization with overlap
     ethr =  2.40E-03,  avg # of iterations =  2.0

     negative rho (up, down):  3.800E-06 0.000E+00

     total cpu time spent up to now is        1.8 secs

     total energy              =     -23.89255652 Ry
     estimated scf accuracy    <       0.00575294 Ry

     iteration #  3     ecut=    70.00 Ry     beta= 0.70
     Davidson diagonalization with overlap
     c_bands:  2 eigenvalues not converged
     c_bands:  2 eigenvalues not converged
     c_bands:  2 eigenvalues not converged
     c_bands:  1 eigenvalues not converged
     c_bands:  1 eigenvalues not converged
     c_bands:  1 eigenvalues not converged
     c_bands:  2 eigenvalues not converged
     c_bands:  1 eigenvalues not converged
     ethr =  7.19E-05,  avg # of iterations = 18.3

     negative rho (up, down):  2.850E-06 0.000E+00

     total cpu time spent up to now is        2.9 secs

     total energy              =     -23.91443768 Ry
     estimated scf accuracy    <       0.00728445 Ry

     iteration #  4     ecut=    70.00 Ry     beta= 0.70
     Davidson diagonalization with overlap
     ethr =  7.19E-05,  avg # of iterations =  3.6

     negative rho (up, down):  5.531E-06 0.000E+00

     total cpu time spent up to now is        3.2 secs

     total energy              =     -23.91526579 Ry
     estimated scf accuracy    <       0.01044752 Ry

     iteration #  5     ecut=    70.00 Ry     beta= 0.70
     Davidson diagonalization with overlap
     ethr =  7.19E-05,  avg # of iterations =  1.2

     negative rho (up, down):  3.000E-05 0.000E+00

     total cpu time spent up to now is        3.5 secs

     total energy              =     -23.90943531 Ry
     estimated scf accuracy    <       0.01073446 Ry

     iteration #  6     ecut=    70.00 Ry     beta= 0.70
     Davidson diagonalization with overlap
     ethr =  7.19E-05,  avg # of iterations =  1.8

     negative rho (up, down):  2.901E-05 0.000E+00

     total cpu time spent up to now is        3.7 secs

     total energy              =     -23.91012054 Ry
     estimated scf accuracy    <       0.00164531 Ry

     iteration #  7     ecut=    70.00 Ry     beta= 0.70
     Davidson diagonalization with overlap
     ethr =  2.06E-05,  avg # of iterations =  3.2

     negative rho (up, down):  2.872E-05 0.000E+00

     total cpu time spent up to now is        4.0 secs

     total energy              =     -23.91025027 Ry
     estimated scf accuracy    <       0.00173176 Ry

     iteration #  8     ecut=    70.00 Ry     beta= 0.70
     Davidson diagonalization with overlap
     ethr =  2.06E-05,  avg # of iterations =  1.7

     negative rho (up, down):  2.832E-05 0.000E+00

     total cpu time spent up to now is        4.3 secs

     total energy              =     -23.91055652 Ry
     estimated scf accuracy    <       0.00152056 Ry

     iteration #  9     ecut=    70.00 Ry     beta= 0.70
     Davidson diagonalization with overlap
     ethr =  1.90E-05,  avg # of iterations =  1.4

     negative rho (up, down):  3.068E-05 0.000E+00

     total cpu time spent up to now is        4.5 secs

     total energy              =     -23.91005281 Ry
     estimated scf accuracy    <       0.00180952 Ry

     iteration # 10     ecut=    70.00 Ry     beta= 0.70
     Davidson diagonalization with overlap
     ethr =  1.90E-05,  avg # of iterations =  1.6

     negative rho (up, down):  3.861E-05 0.000E+00

     total cpu time spent up to now is        4.8 secs

     total energy              =     -23.90986447 Ry
     estimated scf accuracy    <       0.00084030 Ry

     iteration # 11     ecut=    70.00 Ry     beta= 0.70
     Davidson diagonalization with overlap
     c_bands:  1 eigenvalues not converged
     ethr =  1.05E-05,  avg # of iterations =  8.8

     negative rho (up, down):  4.237E-05 0.000E+00

     total cpu time spent up to now is        5.3 secs

     total energy              =     -23.91094605 Ry
     estimated scf accuracy    <       0.00126680 Ry

     iteration # 12     ecut=    70.00 Ry     beta= 0.70
     Davidson diagonalization with overlap
     ethr =  1.05E-05,  avg # of iterations =  2.2

     negative rho (up, down):  3.006E-04 0.000E+00

     total cpu time spent up to now is        5.6 secs

     total energy              =     -23.92573360 Ry
     estimated scf accuracy    <       0.00176454 Ry

     iteration # 13     ecut=    70.00 Ry     beta= 0.70
     Davidson diagonalization with overlap
     c_bands:  1 eigenvalues not converged
     ethr =  1.05E-05,  avg # of iterations = 12.1

     negative rho (up, down):  1.343E-04 0.000E+00

     total cpu time spent up to now is        6.5 secs

     total energy              =     -23.91882928 Ry
     estimated scf accuracy    <       0.04271750 Ry

     iteration # 14     ecut=    70.00 Ry     beta= 0.70
     Davidson diagonalization with overlap
     ethr =  1.05E-05,  avg # of iterations =  4.8

     negative rho (up, down):  5.015E-05 0.000E+00

     total cpu time spent up to now is        6.8 secs

     total energy              =     -23.90981642 Ry
     estimated scf accuracy    <       0.02119533 Ry

     iteration # 15     ecut=    70.00 Ry     beta= 0.70
     Davidson diagonalization with overlap
     ethr =  1.05E-05,  avg # of iterations =  8.1

     negative rho (up, down):  4.603E-05 0.000E+00

     total cpu time spent up to now is        7.4 secs

     total energy              =     -23.90969786 Ry
     estimated scf accuracy    <       0.00320935 Ry

     iteration # 16     ecut=    70.00 Ry     beta= 0.70
     Davidson diagonalization with overlap
     ethr =  1.05E-05,  avg # of iterations =  4.9

     negative rho (up, down):  4.872E-05 0.000E+00

     total cpu time spent up to now is        7.7 secs

     total energy              =     -23.90989379 Ry
     estimated scf accuracy    <       0.00024824 Ry

     iteration # 17     ecut=    70.00 Ry     beta= 0.70
     Davidson diagonalization with overlap
     c_bands:  2 eigenvalues not converged
     ethr =  3.10E-06,  avg # of iterations =  9.7

     negative rho (up, down):  4.983E-05 0.000E+00

     total cpu time spent up to now is        8.3 secs

     total energy              =     -23.91020901 Ry
     estimated scf accuracy    <       0.00012370 Ry

     iteration # 18     ecut=    70.00 Ry     beta= 0.70
     Davidson diagonalization with overlap
     c_bands:  2 eigenvalues not converged
     ethr =  1.55E-06,  avg # of iterations =  3.4

     negative rho (up, down):  5.012E-05 0.000E+00

     total cpu time spent up to now is        8.6 secs

     total energy              =     -23.91020332 Ry
     estimated scf accuracy    <       0.00007409 Ry

     iteration # 19     ecut=    70.00 Ry     beta= 0.70
     Davidson diagonalization with overlap
     c_bands:  1 eigenvalues not converged
     ethr =  9.26E-07,  avg # of iterations =  2.5

     negative rho (up, down):  5.103E-05 0.000E+00

     total cpu time spent up to now is        8.9 secs

     total energy              =     -23.91018507 Ry
     estimated scf accuracy    <       0.00003903 Ry

     iteration # 20     ecut=    70.00 Ry     beta= 0.70
     Davidson diagonalization with overlap
     ethr =  4.88E-07,  avg # of iterations =  2.1

     negative rho (up, down):  5.121E-05 0.000E+00

     total cpu time spent up to now is        9.2 secs

     total energy              =     -23.91018986 Ry
     estimated scf accuracy    <       0.00000275 Ry

     iteration # 21     ecut=    70.00 Ry     beta= 0.70
     Davidson diagonalization with overlap
     ethr =  3.43E-08,  avg # of iterations =  5.1

     negative rho (up, down):  5.026E-05 0.000E+00

     total cpu time spent up to now is        9.6 secs

     total energy              =     -23.91019563 Ry
     estimated scf accuracy    <       0.00000620 Ry

     iteration # 22     ecut=    70.00 Ry     beta= 0.70
     Davidson diagonalization with overlap
     ethr =  3.43E-08,  avg # of iterations =  1.4

     negative rho (up, down):  5.012E-05 0.000E+00

     total cpu time spent up to now is        9.8 secs

     total energy              =     -23.91019552 Ry
     estimated scf accuracy    <       0.00000097 Ry

     iteration # 23     ecut=    70.00 Ry     beta= 0.70
     Davidson diagonalization with overlap
     ethr =  1.22E-08,  avg # of iterations =  4.1

     negative rho (up, down):  5.042E-05 0.000E+00

     total cpu time spent up to now is       10.1 secs

     total energy              =     -23.91019612 Ry
     estimated scf accuracy    <       0.00000009 Ry

     iteration # 24     ecut=    70.00 Ry     beta= 0.70
     Davidson diagonalization with overlap
     ethr =  1.11E-09,  avg # of iterations =  4.8

     negative rho (up, down):  5.034E-05 0.000E+00

     total cpu time spent up to now is       10.4 secs

     total energy              =     -23.91019611 Ry
     estimated scf accuracy    <       0.00000016 Ry

     iteration # 25     ecut=    70.00 Ry     beta= 0.70
     Davidson diagonalization with overlap
     ethr =  1.11E-09,  avg # of iterations =  2.0

     negative rho (up, down):  5.032E-05 0.000E+00

     total cpu time spent up to now is       10.7 secs

     End of self-consistent calculation

          k = 0.0000 0.0000 0.0000 (  5283 PWs)   bands (ev):

   -21.2471  -9.3497  -4.7890  -4.7890   1.4145   2.2361   2.4909   4.4640

          k = 0.0000 0.0962 0.0000 (  5259 PWs)   bands (ev):

   -21.0832  -9.1535  -5.4377  -5.1273   1.6389   2.4621   2.7174   4.6871

          k = 0.0000 0.1925 0.0000 (  5241 PWs)   bands (ev):

   -20.5932  -8.5700  -7.0720  -5.9197   2.3119   3.1387   3.3971   5.3538

          k = 0.0000 0.2887 0.0000 (  5255 PWs)   bands (ev):

   -19.7829  -9.1676  -7.6186  -6.7997   3.4316   4.2519   4.5294   5.5401

          k = 0.0000 0.3849 0.0000 (  5259 PWs)   bands (ev):

   -18.6643 -11.3692  -7.5332  -6.3494   3.2002   4.9882   5.8588   5.9749

          k = 0.0000 0.4811 0.0000 (  5274 PWs)   bands (ev):

   -17.2683 -13.4688  -8.0063  -4.9256   1.0630   5.7631   7.0081   7.8616

          k = 0.0000-0.5774 0.0000 (  5280 PWs)   bands (ev):

   -16.0016 -14.9779  -8.1687  -4.0803  -0.0359   5.6854   9.3381   9.4728

          k = 0.0833 0.1443 0.0000 (  5259 PWs)   bands (ev):

   -20.7562  -8.7635  -6.4690  -5.8046   2.0878   2.9135   3.1707   5.1335

          k = 0.0833 0.2406 0.0000 (  5244 PWs)   bands (ev):

   -20.1061  -8.1759  -7.9949  -6.8024   2.9848   3.8131   4.0771   6.0094

          k = 0.0833 0.3368 0.0000 (  5259 PWs)   bands (ev):

   -19.1415 -10.2468  -7.6885  -6.8781   4.2120   4.3262   5.1840   5.4350

          k = 0.0833 0.4330 0.0000 (  5262 PWs)   bands (ev):

   -17.8812 -12.3686  -8.3233  -5.4975   2.0112   6.0906   6.6051   6.9557

          k = 0.0833 0.5292 0.0000 (  5288 PWs)   bands (ev):

   -16.4007 -14.3106  -8.6517  -4.1871   0.2407   6.4218   8.3172   9.1353

          k = 0.1667 0.2887 0.0000 (  5266 PWs)   bands (ev):

   -19.3017  -9.5037  -8.1641  -7.0570   4.1044   4.6710   4.9318   5.2105

          k = 0.1667 0.3849 0.0000 (  5269 PWs)   bands (ev):

   -18.1939 -11.2297  -9.2197  -5.8030   2.7212   5.6636   6.4792   6.7941

          k = 0.1667 0.4811 0.0000 (  5268 PWs)   bands (ev):

   -16.8178 -13.1403  -9.7950  -4.3752   0.8070   7.6388   8.3247   8.3880

          k = 0.1667 0.5774 0.0000 (  5260 PWs)   bands (ev):

   -15.5808 -14.5777  -9.9797  -3.4817  -0.2622   8.2267   9.8769   9.9113

          k = 0.2500 0.4330 0.0000 (  5254 PWs)   bands (ev):

   -16.9657 -12.2626 -10.7038  -4.4593   1.1052   7.4259   8.1062   8.5981

          k = 0.2500 0.5292 0.0000 (  5276 PWs)   bands (ev):

   -15.5427 -13.6846 -11.4108  -3.0725  -0.4164   9.1532   9.5442  10.4825

          k = 0.3333 0.5774 0.0000 (  5268 PWs)   bands (ev):

   -14.3246 -14.3246 -12.3098  -1.7154  -1.7154   8.9013  11.1597  11.1597

     the Fermi energy is    -1.6775 ev

!    total energy              =     -23.91019612 Ry
     estimated scf accuracy    <          7.0E-09 Ry
     smearing contrib. (-TS)   =      -0.00018232 Ry
     internal energy E=F+TS    =     -23.91001380 Ry

     The total energy is F=E-TS. E is the sum of the following terms:
     one-electron contribution =    -157.39822687 Ry
     hartree contribution      =      80.16192183 Ry
     xc contribution           =      -8.30335587 Ry
     ewald contribution        =      61.62964712 Ry

     convergence has been achieved in  25 iterations

     negative rho (up, down):  5.032E-05 0.000E+00

     Forces acting on atoms (cartesian axes, Ry/au):

     atom    1 type  1   force =     0.00000000    0.00000000    0.00000000
     atom    2 type  1   force =     0.00000000    0.00000000    0.00000000

     Total force =     0.000000     Total SCF correction =     0.000000


     Computing stress (Cartesian axis) and pressure


     negative rho (up, down):  5.032E-05 0.000E+00
          total   stress  (Ry/bohr**3)                   (kbar)     P=        0.22
   0.00000202   0.00000000  -0.00000000            0.30        0.00       -0.00
   0.00000000   0.00000202   0.00000000            0.00        0.30        0.00
  -0.00000000   0.00000000   0.00000054           -0.00        0.00        0.08


     Writing all to output data dir /run/media/rfa/SATA/Skripsi/DFT/dft-graphene/tmp/gr-1L.save/ :
     XML data file, charge density, pseudopotentials, collected wavefunctions

     init_run     :      0.47s CPU      0.61s WALL (       1 calls)
     electrons    :     17.76s CPU     10.03s WALL (       1 calls)
     forces       :      0.05s CPU      0.03s WALL (       1 calls)
     stress       :      0.17s CPU      0.11s WALL (       1 calls)

     Called by init_run:
     wfcinit      :      0.19s CPU      0.11s WALL (       1 calls)
     potinit      :      0.02s CPU      0.02s WALL (       1 calls)
     hinit0       :      0.22s CPU      0.43s WALL (       1 calls)

     Called by electrons:
     c_bands      :     14.91s CPU      8.24s WALL (      26 calls)
     sum_band     :      2.14s CPU      1.16s WALL (      26 calls)
     v_of_rho     :      0.23s CPU      0.24s WALL (      26 calls)
     newd         :      0.26s CPU      0.24s WALL (      26 calls)
     mix_rho      :      0.19s CPU      0.13s WALL (      26 calls)

     Called by c_bands:
     init_us_2    :      0.38s CPU      0.20s WALL (    1045 calls)
     cegterg      :     14.20s CPU      7.82s WALL (     494 calls)

     Called by *egterg:
     cdiaghg      :      0.72s CPU      0.39s WALL (    2849 calls)
     h_psi        :     11.08s CPU      6.16s WALL (    2887 calls)
     s_psi        :      0.22s CPU      0.11s WALL (    2887 calls)
     g_psi        :      0.14s CPU      0.07s WALL (    2374 calls)

     Called by h_psi:
     h_psi:calbec :      0.92s CPU      0.50s WALL (    2887 calls)
     vloc_psi     :      9.57s CPU      5.33s WALL (    2887 calls)
     add_vuspsi   :      0.42s CPU      0.22s WALL (    2887 calls)

     General routines
     calbec       :      1.02s CPU      0.54s WALL (    3704 calls)
     fft          :      0.29s CPU      0.50s WALL (     312 calls)
     ffts         :      0.01s CPU      0.01s WALL (      26 calls)
     fftw         :      8.75s CPU      4.91s WALL (   32432 calls)

     Parallel routines

     PWSCF        :     18.56s CPU     11.08s WALL


   This run was terminated on:  23:38:14  21Apr2025            

=------------------------------------------------------------------------------=
   JOB DONE.
=------------------------------------------------------------------------------=
