
     Program PWSCF v.7.4.1 starts on 21Apr2025 at 23:37:15 

     This program is part of the open-source Quantum ESPRESSO suite
     for quantum simulation of materials; please cite
         "P. Giannozzi et al., J. Phys.:Condens. Matter 21 395502 (2009);
         "P. Giannozzi et al., J. Phys.:Condens. Matter 29 465901 (2017);
         "P. Giannozzi et al., J. Chem. Phys. 152 154105 (2020);
          URL http://www.quantum-espresso.org", 
     in publications or presentations arising from this work. More details at
     http://www.quantum-espresso.org/quote

     Parallel version (MPI), running on     7 processors

     MPI processes distributed on     1 nodes
     13811 MiB available memory on the printing compute node when the environment starts

     Waiting for input...
     Reading input from standard input

     Current dimensions of program PWSCF are:
     Max number of different atomic species (ntypx) = 10
     Max number of k-points (npk) =  40000
     Max angular momentum in pseudopotentials (lmaxx) =  4

     R & G space division:  proc/nbgrp/npool/nimage =       7
     Subspace diagonalization in iterative solution of the eigenvalue problem:
     a serial algorithm will be used


     Parallelization info
     --------------------
     sticks:   dense  smooth     PW     G-vecs:    dense   smooth      PW
     Min          34      34     11                 2594     2594     484
     Max          35      35     13                 2609     2609     493
     Sum         241     241     85                18211    18211    3425

     Using Slab Decomposition



     bravais-lattice index     =            4
     lattice parameter (alat)  =       4.6561  a.u.
     unit-cell volume          =     532.1899 (a.u.)^3
     number of atoms/cell      =            2
     number of atomic types    =            1
     number of electrons       =         8.00
     number of Kohn-Sham states=            8
     kinetic-energy cutoff     =      40.0000  Ry
     charge density cutoff     =     160.0000  Ry
     scf convergence threshold =      1.0E-08
     mixing beta               =       0.7000
     number of iterations used =            8  plain     mixing
     Exchange-correlation= PBE
                           (   1   4   3   4   0   0   0)

     celldm(1)=   4.656107  celldm(2)=   0.000000  celldm(3)=   6.087896
     celldm(4)=   0.000000  celldm(5)=   0.000000  celldm(6)=   0.000000

     crystal axes: (cart. coord. in units of alat)
               a(1) = (   1.000000   0.000000   0.000000 )  
               a(2) = (  -0.500000   0.866025   0.000000 )  
               a(3) = (   0.000000   0.000000   6.087896 )  

     reciprocal axes: (cart. coord. in units 2 pi/alat)
               b(1) = (  1.000000  0.577350 -0.000000 )  
               b(2) = (  0.000000  1.154701  0.000000 )  
               b(3) = (  0.000000 -0.000000  0.164260 )  


     PseudoPot. # 1 for C  read from file:
     /run/media/rfa/SATA/Skripsi/DFT/dft-graphene/pseudo/C.pbe-n-rrkjus_psl.0.1.UPF
     MD5 check sum: 96a6a315177d77e6c95bf6fd3870f9e3
     Pseudo is Ultrasoft + core correction, Zval =  4.0
     Generated using &quot;atomic&quot; code by A. Dal Corso  v.6.3MaX
     Using radial grid of 1073 points,  4 beta functions with: 
                l(1) =   0
                l(2) =   0
                l(3) =   1
                l(4) =   1
     Q(r) pseudized with 0 coefficients 


     atomic species   valence    mass     pseudopotential
     C                 4.00    12.01070     C ( 1.00)

     24 Sym. Ops., with inversion, found



   Cartesian axes

     site n.     atom                  positions (alat units)
         1        C      tau(   1) = (   0.0000000   0.5773503   3.0439478  )
         2        C      tau(   2) = (   0.5000000   0.2886751   3.0439478  )

     number of k points=    19  Marzari-Vanderbilt smearing, width (Ry)=  0.0200
                       cart. coord. in units 2pi/alat
        k(    1) = (   0.0000000   0.0000000   0.0000000), wk =   0.0138889
        k(    2) = (   0.0000000   0.0962250   0.0000000), wk =   0.0833333
        k(    3) = (   0.0000000   0.1924501   0.0000000), wk =   0.0833333
        k(    4) = (   0.0000000   0.2886751   0.0000000), wk =   0.0833333
        k(    5) = (   0.0000000   0.3849002   0.0000000), wk =   0.0833333
        k(    6) = (   0.0000000   0.4811252   0.0000000), wk =   0.0833333
        k(    7) = (   0.0000000  -0.5773503   0.0000000), wk =   0.0416667
        k(    8) = (   0.0833333   0.1443376   0.0000000), wk =   0.0833333
        k(    9) = (   0.0833333   0.2405626   0.0000000), wk =   0.1666667
        k(   10) = (   0.0833333   0.3367877   0.0000000), wk =   0.1666667
        k(   11) = (   0.0833333   0.4330127   0.0000000), wk =   0.1666667
        k(   12) = (   0.0833333   0.5292377   0.0000000), wk =   0.1666667
        k(   13) = (   0.1666667   0.2886751   0.0000000), wk =   0.0833333
        k(   14) = (   0.1666667   0.3849002   0.0000000), wk =   0.1666667
        k(   15) = (   0.1666667   0.4811252   0.0000000), wk =   0.1666667
        k(   16) = (   0.1666667   0.5773503   0.0000000), wk =   0.0833333
        k(   17) = (   0.2500000   0.4330127   0.0000000), wk =   0.0833333
        k(   18) = (   0.2500000   0.5292377   0.0000000), wk =   0.1666667
        k(   19) = (   0.3333333   0.5773503   0.0000000), wk =   0.0277778

     Dense  grid:    18211 G-vectors     FFT dimensions: (  20,  20, 120)

     Estimated max dynamical RAM per process >       4.72 MB

     Estimated total dynamical RAM >      33.02 MB

     Check: negative core charge=   -0.000016

     Initial potential from superposition of free atoms

     starting charge       7.9999, renormalised to       8.0000

     negative rho (up, down):  1.028E-04 0.000E+00
     Starting wfcs are    8 randomized atomic wfcs

     total cpu time spent up to now is        0.8 secs

     per-process dynamical memory:     8.9 Mb

     Self-consistent Calculation

     iteration #  1     ecut=    40.00 Ry     beta= 0.70
     Davidson diagonalization with overlap
     ethr =  1.00E-02,  avg # of iterations =  7.7

     negative rho (up, down):  2.439E-05 0.000E+00

     total cpu time spent up to now is        1.0 secs

     total energy              =     -23.85623443 Ry
     estimated scf accuracy    <       0.11217097 Ry

     iteration #  2     ecut=    40.00 Ry     beta= 0.70
     Davidson diagonalization with overlap
     ethr =  1.40E-03,  avg # of iterations =  5.6

     negative rho (up, down):  3.911E-04 0.000E+00

     total cpu time spent up to now is        1.2 secs

     total energy              =     -23.89768018 Ry
     estimated scf accuracy    <       0.01459546 Ry

     iteration #  3     ecut=    40.00 Ry     beta= 0.70
     Davidson diagonalization with overlap
     c_bands:  1 eigenvalues not converged
     c_bands:  1 eigenvalues not converged
     c_bands:  1 eigenvalues not converged
     c_bands:  1 eigenvalues not converged
     ethr =  1.82E-04,  avg # of iterations = 15.8

     negative rho (up, down):  3.319E-04 0.000E+00

     total cpu time spent up to now is        1.5 secs

     total energy              =     -23.90851400 Ry
     estimated scf accuracy    <       0.00512000 Ry

     iteration #  4     ecut=    40.00 Ry     beta= 0.70
     Davidson diagonalization with overlap
     ethr =  6.40E-05,  avg # of iterations =  2.5

     negative rho (up, down):  4.734E-04 0.000E+00

     total cpu time spent up to now is        1.6 secs

     total energy              =     -23.90848758 Ry
     estimated scf accuracy    <       0.00112973 Ry

     iteration #  5     ecut=    40.00 Ry     beta= 0.70
     Davidson diagonalization with overlap
     c_bands:  1 eigenvalues not converged
     c_bands:  1 eigenvalues not converged
     ethr =  1.41E-05,  avg # of iterations =  9.0

     negative rho (up, down):  4.254E-04 0.000E+00

     total cpu time spent up to now is        1.8 secs

     total energy              =     -23.90899606 Ry
     estimated scf accuracy    <       0.00074830 Ry

     iteration #  6     ecut=    40.00 Ry     beta= 0.70
     Davidson diagonalization with overlap
     ethr =  9.35E-06,  avg # of iterations =  2.9

     negative rho (up, down):  4.210E-04 0.000E+00

     total cpu time spent up to now is        1.9 secs

     total energy              =     -23.90907117 Ry
     estimated scf accuracy    <       0.00002587 Ry

     iteration #  7     ecut=    40.00 Ry     beta= 0.70
     Davidson diagonalization with overlap
     c_bands:  1 eigenvalues not converged
     c_bands:  1 eigenvalues not converged
     c_bands:  1 eigenvalues not converged
     c_bands:  1 eigenvalues not converged
     c_bands:  1 eigenvalues not converged
     c_bands:  1 eigenvalues not converged
     ethr =  3.23E-07,  avg # of iterations = 13.4

     negative rho (up, down):  4.232E-04 0.000E+00

     total cpu time spent up to now is        2.1 secs

     total energy              =     -23.90914174 Ry
     estimated scf accuracy    <       0.00000424 Ry

     iteration #  8     ecut=    40.00 Ry     beta= 0.70
     Davidson diagonalization with overlap
     c_bands:  1 eigenvalues not converged
     ethr =  5.30E-08,  avg # of iterations =  6.1

     negative rho (up, down):  4.234E-04 0.000E+00

     total cpu time spent up to now is        2.3 secs

     total energy              =     -23.90914384 Ry
     estimated scf accuracy    <       0.00000001 Ry

     iteration #  9     ecut=    40.00 Ry     beta= 0.70
     Davidson diagonalization with overlap
     ethr =  1.65E-10,  avg # of iterations =  8.5

     negative rho (up, down):  4.236E-04 0.000E+00

     total cpu time spent up to now is        2.5 secs

     total energy              =     -23.90914444 Ry
     estimated scf accuracy    <       0.00000023 Ry

     iteration # 10     ecut=    40.00 Ry     beta= 0.70
     Davidson diagonalization with overlap
     ethr =  1.65E-10,  avg # of iterations =  3.9

     negative rho (up, down):  4.224E-04 0.000E+00

     total cpu time spent up to now is        2.6 secs

     total energy              =     -23.90914415 Ry
     estimated scf accuracy    <       0.00000044 Ry

     iteration # 11     ecut=    40.00 Ry     beta= 0.70
     Davidson diagonalization with overlap
     ethr =  1.65E-10,  avg # of iterations =  4.7

     negative rho (up, down):  4.227E-04 0.000E+00

     total cpu time spent up to now is        2.7 secs

     total energy              =     -23.90914424 Ry
     estimated scf accuracy    <       0.00000002 Ry

     iteration # 12     ecut=    40.00 Ry     beta= 0.70
     Davidson diagonalization with overlap
     ethr =  1.65E-10,  avg # of iterations =  4.1

     negative rho (up, down):  4.226E-04 0.000E+00

     total cpu time spent up to now is        2.9 secs

     End of self-consistent calculation

          k = 0.0000 0.0000 0.0000 (  2289 PWs)   bands (ev):

   -21.2530  -9.3542  -4.7940  -4.7940   1.1573   1.8995   2.1256   4.1396

          k = 0.0000 0.0962 0.0000 (  2286 PWs)   bands (ev):

   -21.0891  -9.1579  -5.4429  -5.1325   1.3832   2.1262   2.3513   4.3628

          k = 0.0000 0.1925 0.0000 (  2280 PWs)   bands (ev):

   -20.5991  -8.5744  -7.0773  -5.9250   2.0607   2.8053   3.0286   5.0301

          k = 0.0000 0.2887 0.0000 (  2278 PWs)   bands (ev):

   -19.7887  -9.1729  -7.6229  -6.8050   3.1884   3.9276   4.1565   5.5157

          k = 0.0000 0.3849 0.0000 (  2272 PWs)   bands (ev):

   -18.6699 -11.3746  -7.5387  -6.3536   3.1952   4.7604   5.5354   5.7118

          k = 0.0000 0.4811 0.0000 (  2282 PWs)   bands (ev):

   -17.2738 -13.4742  -8.0119  -4.9297   1.0589   5.7601   6.7908   7.5516

          k = 0.0000-0.5774 0.0000 (  2260 PWs)   bands (ev):

   -16.0072 -14.9832  -8.1743  -4.0843  -0.0400   5.6827   9.1644   9.2701

          k = 0.0833 0.1443 0.0000 (  2291 PWs)   bands (ev):

   -20.7621  -8.7680  -6.4743  -5.8098   1.8350   2.5792   2.8030   4.8087

          k = 0.0833 0.2406 0.0000 (  2281 PWs)   bands (ev):

   -20.1119  -8.1813  -7.9993  -6.8077   2.7381   3.4827   3.7064   5.6915

          k = 0.0833 0.3368 0.0000 (  2266 PWs)   bands (ev):

   -19.1472 -10.2523  -7.6939  -6.8824   4.0896   4.2011   4.8648   5.0591

          k = 0.0833 0.4330 0.0000 (  2279 PWs)   bands (ev):

   -17.8868 -12.3740  -8.3288  -5.5016   2.0071   5.8779   6.5742   6.6422

          k = 0.0833 0.5292 0.0000 (  2273 PWs)   bands (ev):

   -16.4063 -14.3160  -8.6572  -4.1912   0.2367   6.4192   8.1158   8.8531

          k = 0.1667 0.2887 0.0000 (  2273 PWs)   bands (ev):

   -19.3074  -9.5092  -8.1693  -7.0613   3.8654   4.6076   4.6672   4.8354

          k = 0.1667 0.3849 0.0000 (  2279 PWs)   bands (ev):

   -18.1995 -11.2352  -9.2251  -5.8072   2.7174   5.4375   6.1690   6.4121

          k = 0.1667 0.4811 0.0000 (  2273 PWs)   bands (ev):

   -16.8234 -13.1458  -9.8004  -4.3792   0.8031   7.4376   8.1197   8.2898

          k = 0.1667 0.5774 0.0000 (  2254 PWs)   bands (ev):

   -15.5865 -14.5831  -9.9851  -3.4856  -0.2662   8.2240   9.7604   9.7907

          k = 0.2500 0.4330 0.0000 (  2269 PWs)   bands (ev):

   -16.9712 -12.2682 -10.7091  -4.4634   1.1015   7.2186   7.8501   8.2064

          k = 0.2500 0.5292 0.0000 (  2253 PWs)   bands (ev):

   -15.5482 -13.6901 -11.4160  -3.0764  -0.4202   9.0966   9.3786  10.3779

          k = 0.3333 0.5774 0.0000 (  2259 PWs)   bands (ev):

   -14.3302 -14.3302 -12.3149  -1.7192  -1.7192   8.8808  11.1066  11.1074

     the Fermi energy is    -1.6813 ev

!    total energy              =     -23.90914424 Ry
     estimated scf accuracy    <          8.5E-09 Ry
     smearing contrib. (-TS)   =      -0.00018232 Ry
     internal energy E=F+TS    =     -23.90896191 Ry

     The total energy is F=E-TS. E is the sum of the following terms:
     one-electron contribution =    -157.39288067 Ry
     hartree contribution      =      80.15763001 Ry
     xc contribution           =      -8.30335834 Ry
     ewald contribution        =      61.62964709 Ry

     convergence has been achieved in  12 iterations

     negative rho (up, down):  4.226E-04 0.000E+00

     Forces acting on atoms (cartesian axes, Ry/au):

     atom    1 type  1   force =     0.00000000   -0.00000000    0.00000000
     atom    2 type  1   force =     0.00000000    0.00000000    0.00000000

     Total force =     0.000000     Total SCF correction =     0.000000


     Computing stress (Cartesian axis) and pressure


     negative rho (up, down):  4.226E-04 0.000E+00
          total   stress  (Ry/bohr**3)                   (kbar)     P=        0.15
   0.00000222  -0.00000000   0.00000000            0.33       -0.00        0.00
  -0.00000000   0.00000222  -0.00000000           -0.00        0.33       -0.00
   0.00000000  -0.00000000  -0.00000141            0.00       -0.00       -0.21


     Writing all to output data dir /run/media/rfa/SATA/Skripsi/DFT/dft-graphene/tmp/gr-1L.save/ :
     XML data file, charge density, pseudopotentials, collected wavefunctions

     init_run     :      0.38s CPU      0.74s WALL (       1 calls)
     electrons    :      3.40s CPU      2.04s WALL (       1 calls)
     forces       :      0.01s CPU      0.01s WALL (       1 calls)
     stress       :      0.04s CPU      0.04s WALL (       1 calls)

     Called by init_run:
     wfcinit      :      0.06s CPU      0.04s WALL (       1 calls)
     potinit      :      0.01s CPU      0.01s WALL (       1 calls)
     hinit0       :      0.30s CPU      0.68s WALL (       1 calls)

     Called by electrons:
     c_bands      :      3.04s CPU      1.73s WALL (      12 calls)
     sum_band     :      0.27s CPU      0.20s WALL (      12 calls)
     v_of_rho     :      0.04s CPU      0.05s WALL (      13 calls)
     newd         :      0.04s CPU      0.05s WALL (      13 calls)
     mix_rho      :      0.01s CPU      0.01s WALL (      12 calls)

     Called by c_bands:
     init_us_2    :      0.06s CPU      0.04s WALL (     513 calls)
     cegterg      :      2.89s CPU      1.63s WALL (     228 calls)

     Called by *egterg:
     cdiaghg      :      0.38s CPU      0.21s WALL (    1827 calls)
     h_psi        :      2.07s CPU      1.17s WALL (    1846 calls)
     s_psi        :      0.05s CPU      0.03s WALL (    1846 calls)
     g_psi        :      0.04s CPU      0.02s WALL (    1599 calls)

     Called by h_psi:
     h_psi:calbec :      0.12s CPU      0.07s WALL (    1846 calls)
     vloc_psi     :      1.85s CPU      1.04s WALL (    1846 calls)
     add_vuspsi   :      0.05s CPU      0.03s WALL (    1846 calls)

     General routines
     calbec       :      0.12s CPU      0.08s WALL (    2397 calls)
     fft          :      0.29s CPU      0.67s WALL (     168 calls)
     ffts         :      0.00s CPU      0.00s WALL (      12 calls)
     fftw         :      1.68s CPU      0.95s WALL (   17128 calls)

     Parallel routines

     PWSCF        :      3.91s CPU      3.05s WALL


   This run was terminated on:  23:37:18  21Apr2025            

=------------------------------------------------------------------------------=
   JOB DONE.
=------------------------------------------------------------------------------=
