
     Program PWSCF v.7.4.1 starts on 21Apr2025 at 23:37:24 

     This program is part of the open-source Quantum ESPRESSO suite
     for quantum simulation of materials; please cite
         "P. Giannozzi et al., J. Phys.:Condens. Matter 21 395502 (2009);
         "P. Giannozzi et al., J. Phys.:Condens. Matter 29 465901 (2017);
         "P. Giannozzi et al., J. Chem. Phys. 152 154105 (2020);
          URL http://www.quantum-espresso.org", 
     in publications or presentations arising from this work. More details at
     http://www.quantum-espresso.org/quote

     Parallel version (MPI), running on     7 processors

     MPI processes distributed on     1 nodes
     13824 MiB available memory on the printing compute node when the environment starts

     Waiting for input...
     Reading input from standard input

     Current dimensions of program PWSCF are:
     Max number of different atomic species (ntypx) = 10
     Max number of k-points (npk) =  40000
     Max angular momentum in pseudopotentials (lmaxx) =  4

     R & G space division:  proc/nbgrp/npool/nimage =       7
     Subspace diagonalization in iterative solution of the eigenvalue problem:
     a serial algorithm will be used


     Parallelization info
     --------------------
     sticks:   dense  smooth     PW     G-vecs:    dense   smooth      PW
     Min          43      43     13                 3639     3639     639
     Max          43      43     13                 3649     3649     655
     Sum         301     301     91                25507    25507    4493

     Using Slab Decomposition



     bravais-lattice index     =            4
     lattice parameter (alat)  =       4.6561  a.u.
     unit-cell volume          =     532.1899 (a.u.)^3
     number of atoms/cell      =            2
     number of atomic types    =            1
     number of electrons       =         8.00
     number of Kohn-Sham states=            8
     kinetic-energy cutoff     =      50.0000  Ry
     charge density cutoff     =     200.0000  Ry
     scf convergence threshold =      1.0E-08
     mixing beta               =       0.7000
     number of iterations used =            8  plain     mixing
     Exchange-correlation= PBE
                           (   1   4   3   4   0   0   0)

     celldm(1)=   4.656107  celldm(2)=   0.000000  celldm(3)=   6.087896
     celldm(4)=   0.000000  celldm(5)=   0.000000  celldm(6)=   0.000000

     crystal axes: (cart. coord. in units of alat)
               a(1) = (   1.000000   0.000000   0.000000 )  
               a(2) = (  -0.500000   0.866025   0.000000 )  
               a(3) = (   0.000000   0.000000   6.087896 )  

     reciprocal axes: (cart. coord. in units 2 pi/alat)
               b(1) = (  1.000000  0.577350 -0.000000 )  
               b(2) = (  0.000000  1.154701  0.000000 )  
               b(3) = (  0.000000 -0.000000  0.164260 )  


     PseudoPot. # 1 for C  read from file:
     /run/media/rfa/SATA/Skripsi/DFT/dft-graphene/pseudo/C.pbe-n-rrkjus_psl.0.1.UPF
     MD5 check sum: 96a6a315177d77e6c95bf6fd3870f9e3
     Pseudo is Ultrasoft + core correction, Zval =  4.0
     Generated using &quot;atomic&quot; code by A. Dal Corso  v.6.3MaX
     Using radial grid of 1073 points,  4 beta functions with: 
                l(1) =   0
                l(2) =   0
                l(3) =   1
                l(4) =   1
     Q(r) pseudized with 0 coefficients 


     atomic species   valence    mass     pseudopotential
     C                 4.00    12.01070     C ( 1.00)

     24 Sym. Ops., with inversion, found



   Cartesian axes

     site n.     atom                  positions (alat units)
         1        C      tau(   1) = (   0.0000000   0.5773503   3.0439478  )
         2        C      tau(   2) = (   0.5000000   0.2886751   3.0439478  )

     number of k points=    19  Marzari-Vanderbilt smearing, width (Ry)=  0.0200
                       cart. coord. in units 2pi/alat
        k(    1) = (   0.0000000   0.0000000   0.0000000), wk =   0.0138889
        k(    2) = (   0.0000000   0.0962250   0.0000000), wk =   0.0833333
        k(    3) = (   0.0000000   0.1924501   0.0000000), wk =   0.0833333
        k(    4) = (   0.0000000   0.2886751   0.0000000), wk =   0.0833333
        k(    5) = (   0.0000000   0.3849002   0.0000000), wk =   0.0833333
        k(    6) = (   0.0000000   0.4811252   0.0000000), wk =   0.0833333
        k(    7) = (   0.0000000  -0.5773503   0.0000000), wk =   0.0416667
        k(    8) = (   0.0833333   0.1443376   0.0000000), wk =   0.0833333
        k(    9) = (   0.0833333   0.2405626   0.0000000), wk =   0.1666667
        k(   10) = (   0.0833333   0.3367877   0.0000000), wk =   0.1666667
        k(   11) = (   0.0833333   0.4330127   0.0000000), wk =   0.1666667
        k(   12) = (   0.0833333   0.5292377   0.0000000), wk =   0.1666667
        k(   13) = (   0.1666667   0.2886751   0.0000000), wk =   0.0833333
        k(   14) = (   0.1666667   0.3849002   0.0000000), wk =   0.1666667
        k(   15) = (   0.1666667   0.4811252   0.0000000), wk =   0.1666667
        k(   16) = (   0.1666667   0.5773503   0.0000000), wk =   0.0833333
        k(   17) = (   0.2500000   0.4330127   0.0000000), wk =   0.0833333
        k(   18) = (   0.2500000   0.5292377   0.0000000), wk =   0.1666667
        k(   19) = (   0.3333333   0.5773503   0.0000000), wk =   0.0277778

     Dense  grid:    25507 G-vectors     FFT dimensions: (  24,  24, 128)

     Estimated max dynamical RAM per process >       6.59 MB

     Estimated total dynamical RAM >      46.14 MB

     Check: negative core charge=   -0.000004

     Initial potential from superposition of free atoms

     starting charge       7.9999, renormalised to       8.0000

     negative rho (up, down):  2.717E-04 0.000E+00
     Starting wfcs are    8 randomized atomic wfcs

     total cpu time spent up to now is        0.6 secs

     per-process dynamical memory:    10.2 Mb

     Self-consistent Calculation

     iteration #  1     ecut=    50.00 Ry     beta= 0.70
     Davidson diagonalization with overlap
     ethr =  1.00E-02,  avg # of iterations =  8.4

     negative rho (up, down):  1.551E-07 0.000E+00

     total cpu time spent up to now is        0.9 secs

     total energy              =     -23.83616186 Ry
     estimated scf accuracy    <       0.08267817 Ry

     iteration #  2     ecut=    50.00 Ry     beta= 0.70
     Davidson diagonalization with overlap
     ethr =  1.03E-03,  avg # of iterations =  6.3

     negative rho (up, down):  5.699E-04 0.000E+00

     total cpu time spent up to now is        1.2 secs

     total energy              =     -23.90062014 Ry
     estimated scf accuracy    <       0.02635389 Ry

     iteration #  3     ecut=    50.00 Ry     beta= 0.70
     Davidson diagonalization with overlap
     c_bands:  1 eigenvalues not converged
     ethr =  3.29E-04,  avg # of iterations = 13.9

     negative rho (up, down):  9.064E-06 0.000E+00

     total cpu time spent up to now is        1.6 secs

     total energy              =     -23.90580333 Ry
     estimated scf accuracy    <       0.02984369 Ry

     iteration #  4     ecut=    50.00 Ry     beta= 0.70
     Davidson diagonalization with overlap
     ethr =  3.29E-04,  avg # of iterations =  1.4

     negative rho (up, down):  8.256E-05 0.000E+00

     total cpu time spent up to now is        1.8 secs

     total energy              =     -23.90553782 Ry
     estimated scf accuracy    <       0.00321868 Ry

     iteration #  5     ecut=    50.00 Ry     beta= 0.70
     Davidson diagonalization with overlap
     c_bands:  1 eigenvalues not converged
     ethr =  4.02E-05,  avg # of iterations =  8.6

     negative rho (up, down):  5.191E-05 0.000E+00

     total cpu time spent up to now is        2.1 secs

     total energy              =     -23.90928328 Ry
     estimated scf accuracy    <       0.00165756 Ry

     iteration #  6     ecut=    50.00 Ry     beta= 0.70
     Davidson diagonalization with overlap
     c_bands:  1 eigenvalues not converged
     ethr =  2.07E-05,  avg # of iterations =  4.3

     negative rho (up, down):  6.298E-05 0.000E+00

     total cpu time spent up to now is        2.3 secs

     total energy              =     -23.90912315 Ry
     estimated scf accuracy    <       0.00055153 Ry

     iteration #  7     ecut=    50.00 Ry     beta= 0.70
     Davidson diagonalization with overlap
     c_bands:  2 eigenvalues not converged
     ethr =  6.89E-06,  avg # of iterations =  8.0

     negative rho (up, down):  6.191E-05 0.000E+00

     total cpu time spent up to now is        2.6 secs

     total energy              =     -23.90932746 Ry
     estimated scf accuracy    <       0.00000031 Ry

     iteration #  8     ecut=    50.00 Ry     beta= 0.70
     Davidson diagonalization with overlap
     c_bands:  5 eigenvalues not converged
     c_bands:  5 eigenvalues not converged
     c_bands:  5 eigenvalues not converged
     ethr =  3.91E-09,  avg # of iterations = 15.3

     negative rho (up, down):  5.573E-05 0.000E+00

     total cpu time spent up to now is        3.2 secs

     total energy              =     -23.90939934 Ry
     estimated scf accuracy    <       0.00000469 Ry

     iteration #  9     ecut=    50.00 Ry     beta= 0.70
     Davidson diagonalization with overlap
     c_bands:  1 eigenvalues not converged
     c_bands:  1 eigenvalues not converged
     ethr =  3.91E-09,  avg # of iterations =  5.9

     negative rho (up, down):  6.765E-05 0.000E+00

     total cpu time spent up to now is        3.5 secs

     total energy              =     -23.90939939 Ry
     estimated scf accuracy    <       0.00000243 Ry

     iteration # 10     ecut=    50.00 Ry     beta= 0.70
     Davidson diagonalization with overlap
     c_bands:  1 eigenvalues not converged
     ethr =  3.91E-09,  avg # of iterations =  4.4

     negative rho (up, down):  6.770E-05 0.000E+00

     total cpu time spent up to now is        3.7 secs

     total energy              =     -23.90939933 Ry
     estimated scf accuracy    <       0.00000042 Ry

     iteration # 11     ecut=    50.00 Ry     beta= 0.70
     Davidson diagonalization with overlap
     ethr =  3.91E-09,  avg # of iterations =  2.0

     negative rho (up, down):  6.781E-05 0.000E+00

     total cpu time spent up to now is        3.9 secs

     total energy              =     -23.90939971 Ry
     estimated scf accuracy    <       0.00000012 Ry

     iteration # 12     ecut=    50.00 Ry     beta= 0.70
     Davidson diagonalization with overlap
     ethr =  1.49E-09,  avg # of iterations =  1.9

     negative rho (up, down):  6.828E-05 0.000E+00

     total cpu time spent up to now is        4.1 secs

     total energy              =     -23.90939933 Ry
     estimated scf accuracy    <       0.00000078 Ry

     iteration # 13     ecut=    50.00 Ry     beta= 0.70
     Davidson diagonalization with overlap
     ethr =  1.49E-09,  avg # of iterations =  3.2

     negative rho (up, down):  6.890E-05 0.000E+00

     total cpu time spent up to now is        4.2 secs

     total energy              =     -23.90939939 Ry
     estimated scf accuracy    <       0.00000003 Ry

     iteration # 14     ecut=    50.00 Ry     beta= 0.70
     Davidson diagonalization with overlap
     ethr =  3.36E-10,  avg # of iterations =  4.1

     negative rho (up, down):  6.893E-05 0.000E+00

     total cpu time spent up to now is        4.5 secs

     total energy              =     -23.90939943 Ry
     estimated scf accuracy    <       0.00000004 Ry

     iteration # 15     ecut=    50.00 Ry     beta= 0.70
     Davidson diagonalization with overlap
     ethr =  3.36E-10,  avg # of iterations =  1.4

     negative rho (up, down):  6.915E-05 0.000E+00

     total cpu time spent up to now is        4.6 secs

     total energy              =     -23.90939942 Ry
     estimated scf accuracy    <       0.00000004 Ry

     iteration # 16     ecut=    50.00 Ry     beta= 0.70
     Davidson diagonalization with overlap
     ethr =  3.36E-10,  avg # of iterations =  1.2

     negative rho (up, down):  6.901E-05 0.000E+00

     total cpu time spent up to now is        4.8 secs

     total energy              =     -23.90939943 Ry
     estimated scf accuracy    <       0.00000001 Ry

     iteration # 17     ecut=    50.00 Ry     beta= 0.70
     Davidson diagonalization with overlap
     ethr =  1.26E-10,  avg # of iterations =  1.3

     negative rho (up, down):  6.899E-05 0.000E+00

     total cpu time spent up to now is        4.9 secs

     total energy              =     -23.90939942 Ry
     estimated scf accuracy    <       0.00000004 Ry

     iteration # 18     ecut=    50.00 Ry     beta= 0.70
     Davidson diagonalization with overlap
     ethr =  1.26E-10,  avg # of iterations =  1.3

     negative rho (up, down):  6.904E-05 0.000E+00

     total cpu time spent up to now is        5.1 secs

     End of self-consistent calculation

          k = 0.0000 0.0000 0.0000 (  3135 PWs)   bands (ev):

   -21.2477  -9.3488  -4.7873  -4.7873   1.3990   2.2113   2.4524   4.4371

          k = 0.0000 0.0962 0.0000 (  3173 PWs)   bands (ev):

   -21.0838  -9.1526  -5.4363  -5.1258   1.6236   2.4374   2.6788   4.6600

          k = 0.0000 0.1925 0.0000 (  3183 PWs)   bands (ev):

   -20.5937  -8.5691  -7.0708  -5.9183   2.2970   3.1143   3.3582   5.3271

          k = 0.0000 0.2887 0.0000 (  3177 PWs)   bands (ev):

   -19.7833  -9.1665  -7.6176  -6.7982   3.4176   4.2286   4.4893   5.5397

          k = 0.0000 0.3849 0.0000 (  3189 PWs)   bands (ev):

   -18.6646 -11.3684  -7.5319  -6.3484   3.2015   4.9757   5.8366   5.9619

          k = 0.0000 0.4811 0.0000 (  3207 PWs)   bands (ev):

   -17.2684 -13.4683  -8.0051  -4.9246   1.0643   5.7639   6.9965   7.8420

          k = 0.0000-0.5774 0.0000 (  3208 PWs)   bands (ev):

   -16.0019 -14.9773  -8.1675  -4.0792  -0.0347   5.6861   9.3290   9.4642

          k = 0.0833 0.1443 0.0000 (  3191 PWs)   bands (ev):

   -20.7568  -8.7626  -6.4677  -5.8031   2.0727   2.8890   3.1319   5.1057

          k = 0.0833 0.2406 0.0000 (  3176 PWs)   bands (ev):

   -20.1065  -8.1748  -7.9939  -6.8010   2.9704   3.7890   4.0380   5.9887

          k = 0.0833 0.3368 0.0000 (  3174 PWs)   bands (ev):

   -19.1418 -10.2460  -7.6872  -6.8771   4.2131   4.3128   5.1611   5.3948

          k = 0.0833 0.4330 0.0000 (  3188 PWs)   bands (ev):

   -17.8814 -12.3680  -8.3220  -5.4965   2.0124   6.0796   6.6036   6.9337

          k = 0.0833 0.5292 0.0000 (  3187 PWs)   bands (ev):

   -16.4008 -14.3101  -8.6505  -4.1861   0.2420   6.4227   8.3069   9.1182

          k = 0.1667 0.2887 0.0000 (  3165 PWs)   bands (ev):

   -19.3020  -9.5028  -8.1628  -7.0560   4.0908   4.6724   4.9086   5.1706

          k = 0.1667 0.3849 0.0000 (  3167 PWs)   bands (ev):

   -18.1941 -11.2290  -9.2185  -5.8020   2.7225   5.6512   6.4578   6.7534

          k = 0.1667 0.4811 0.0000 (  3169 PWs)   bands (ev):

   -16.8179 -13.1398  -9.7939  -4.3741   0.8082   7.6287   8.3241   8.3713

          k = 0.1667 0.5774 0.0000 (  3186 PWs)   bands (ev):

   -15.5810 -14.5772  -9.9786  -3.4806  -0.2610   8.2279   9.8764   9.9040

          k = 0.2500 0.4330 0.0000 (  3157 PWs)   bands (ev):

   -16.9658 -12.2621 -10.7026  -4.4582   1.1065   7.4153   8.0910   8.5562

          k = 0.2500 0.5292 0.0000 (  3158 PWs)   bands (ev):

   -15.5427 -13.6842 -11.4096  -3.0713  -0.4151   9.1533   9.5370  10.4819

          k = 0.3333 0.5774 0.0000 (  3171 PWs)   bands (ev):

   -14.3246 -14.3246 -12.3085  -1.7142  -1.7142   8.9027  11.1591  11.1595

     the Fermi energy is    -1.6763 ev

!    total energy              =     -23.90939941 Ry
     estimated scf accuracy    <          6.6E-09 Ry
     smearing contrib. (-TS)   =      -0.00018232 Ry
     internal energy E=F+TS    =     -23.90921709 Ry

     The total energy is F=E-TS. E is the sum of the following terms:
     one-electron contribution =    -157.39538478 Ry
     hartree contribution      =      80.15998555 Ry
     xc contribution           =      -8.30346491 Ry
     ewald contribution        =      61.62964706 Ry

     convergence has been achieved in  18 iterations

     negative rho (up, down):  6.904E-05 0.000E+00

     Forces acting on atoms (cartesian axes, Ry/au):

     atom    1 type  1   force =     0.00000000    0.00000000    0.00000000
     atom    2 type  1   force =     0.00000000    0.00000000    0.00000000

     Total force =     0.000000     Total SCF correction =     0.000000


     Computing stress (Cartesian axis) and pressure


     negative rho (up, down):  6.904E-05 0.000E+00
          total   stress  (Ry/bohr**3)                   (kbar)     P=       -0.21
  -0.00000024   0.00000000   0.00000000           -0.04        0.00        0.00
   0.00000000  -0.00000024   0.00000000            0.00       -0.04        0.00
   0.00000000   0.00000000  -0.00000380            0.00        0.00       -0.56


     Writing all to output data dir /run/media/rfa/SATA/Skripsi/DFT/dft-graphene/tmp/gr-1L.save/ :
     XML data file, charge density, pseudopotentials, collected wavefunctions

     init_run     :      0.35s CPU      0.56s WALL (       1 calls)
     electrons    :      7.93s CPU      4.46s WALL (       1 calls)
     forces       :      0.02s CPU      0.02s WALL (       1 calls)
     stress       :      0.06s CPU      0.06s WALL (       1 calls)

     Called by init_run:
     wfcinit      :      0.11s CPU      0.06s WALL (       1 calls)
     potinit      :      0.01s CPU      0.01s WALL (       1 calls)
     hinit0       :      0.20s CPU      0.46s WALL (       1 calls)

     Called by electrons:
     c_bands      :      6.90s CPU      3.70s WALL (      18 calls)
     sum_band     :      0.68s CPU      0.49s WALL (      18 calls)
     v_of_rho     :      0.15s CPU      0.12s WALL (      19 calls)
     newd         :      0.11s CPU      0.10s WALL (      19 calls)
     mix_rho      :      0.08s CPU      0.04s WALL (      18 calls)

     Called by c_bands:
     init_us_2    :      0.12s CPU      0.08s WALL (     741 calls)
     cegterg      :      6.58s CPU      3.50s WALL (     342 calls)

     Called by *egterg:
     cdiaghg      :      0.49s CPU      0.25s WALL (    2107 calls)
     h_psi        :      5.36s CPU      2.85s WALL (    2126 calls)
     s_psi        :      0.08s CPU      0.04s WALL (    2126 calls)
     g_psi        :      0.06s CPU      0.03s WALL (    1765 calls)

     Called by h_psi:
     h_psi:calbec :      0.23s CPU      0.13s WALL (    2126 calls)
     vloc_psi     :      4.98s CPU      2.63s WALL (    2126 calls)
     add_vuspsi   :      0.09s CPU      0.05s WALL (    2126 calls)

     General routines
     calbec       :      0.24s CPU      0.14s WALL (    2791 calls)
     fft          :      0.24s CPU      0.49s WALL (     234 calls)
     ffts         :      0.00s CPU      0.00s WALL (      18 calls)
     fftw         :      4.73s CPU      2.56s WALL (   22462 calls)

     Parallel routines

     PWSCF        :      8.46s CPU      5.35s WALL


   This run was terminated on:  23:37:29  21Apr2025            

=------------------------------------------------------------------------------=
   JOB DONE.
=------------------------------------------------------------------------------=
