
     Program PWSCF v.7.4.1 starts on 16Apr2025 at 15: 7: 8 

     This program is part of the open-source Quantum ESPRESSO suite
     for quantum simulation of materials; please cite
         "P. Giannozzi et al., J. Phys.:Condens. Matter 21 395502 (2009);
         "P. Giannozzi et al., J. Phys.:Condens. Matter 29 465901 (2017);
         "P. Giannozzi et al., J. Chem. Phys. 152 154105 (2020);
          URL http://www.quantum-espresso.org", 
     in publications or presentations arising from this work. More details at
     http://www.quantum-espresso.org/quote

     Parallel version (MPI), running on     7 processors

     MPI processes distributed on     1 nodes
     15173 MiB available memory on the printing compute node when the environment starts

     Waiting for input...
     Reading input from standard input

     Current dimensions of program PWSCF are:
     Max number of different atomic species (ntypx) = 10
     Max number of k-points (npk) =  40000
     Max angular momentum in pseudopotentials (lmaxx) =  4

     R & G space division:  proc/nbgrp/npool/nimage =       7
     Subspace diagonalization in iterative solution of the eigenvalue problem:
     a serial algorithm will be used


     Parallelization info
     --------------------
     sticks:   dense  smooth     PW     G-vecs:    dense   smooth      PW
     Min          29      29      9                 2121     2121     397
     Max          31      31     13                 2125     2125     402
     Sum         211     211     73                14861    14861    2797

     Using Slab Decomposition



     bravais-lattice index     =            4
     lattice parameter (alat)  =       4.6561  a.u.
     unit-cell volume          =     532.1899 (a.u.)^3
     number of atoms/cell      =            2
     number of atomic types    =            1
     number of electrons       =         8.00
     number of Kohn-Sham states=            8
     kinetic-energy cutoff     =      35.0000  Ry
     charge density cutoff     =     140.0000  Ry
     scf convergence threshold =      1.0E-08
     mixing beta               =       0.7000
     number of iterations used =            8  plain     mixing
     Exchange-correlation= PBE
                           (   1   4   3   4   0   0   0)

     celldm(1)=   4.656107  celldm(2)=   0.000000  celldm(3)=   6.087896
     celldm(4)=   0.000000  celldm(5)=   0.000000  celldm(6)=   0.000000

     crystal axes: (cart. coord. in units of alat)
               a(1) = (   1.000000   0.000000   0.000000 )  
               a(2) = (  -0.500000   0.866025   0.000000 )  
               a(3) = (   0.000000   0.000000   6.087896 )  

     reciprocal axes: (cart. coord. in units 2 pi/alat)
               b(1) = (  1.000000  0.577350 -0.000000 )  
               b(2) = (  0.000000  1.154701  0.000000 )  
               b(3) = (  0.000000 -0.000000  0.164260 )  


     PseudoPot. # 1 for C  read from file:
     /home/rfa/Skripsi/DFT/dft-graphene/pseudo/C.pbe-n-rrkjus_psl.0.1.UPF
     MD5 check sum: 96a6a315177d77e6c95bf6fd3870f9e3
     Pseudo is Ultrasoft + core correction, Zval =  4.0
     Generated using &quot;atomic&quot; code by A. Dal Corso  v.6.3MaX
     Using radial grid of 1073 points,  4 beta functions with: 
                l(1) =   0
                l(2) =   0
                l(3) =   1
                l(4) =   1
     Q(r) pseudized with 0 coefficients 


     atomic species   valence    mass     pseudopotential
     C                 4.00    12.01070     C ( 1.00)

     24 Sym. Ops., with inversion, found



   Cartesian axes

     site n.     atom                  positions (alat units)
         1        C      tau(   1) = (   0.0000000   0.5773503   3.0439478  )
         2        C      tau(   2) = (   0.5000000   0.2886751   3.0439478  )

     number of k points=    19  Marzari-Vanderbilt smearing, width (Ry)=  0.0200
                       cart. coord. in units 2pi/alat
        k(    1) = (   0.0000000   0.0000000   0.0000000), wk =   0.0138889
        k(    2) = (   0.0000000   0.0962250   0.0000000), wk =   0.0833333
        k(    3) = (   0.0000000   0.1924501   0.0000000), wk =   0.0833333
        k(    4) = (   0.0000000   0.2886751   0.0000000), wk =   0.0833333
        k(    5) = (   0.0000000   0.3849002   0.0000000), wk =   0.0833333
        k(    6) = (   0.0000000   0.4811252   0.0000000), wk =   0.0833333
        k(    7) = (   0.0000000  -0.5773503   0.0000000), wk =   0.0416667
        k(    8) = (   0.0833333   0.1443376   0.0000000), wk =   0.0833333
        k(    9) = (   0.0833333   0.2405626   0.0000000), wk =   0.1666667
        k(   10) = (   0.0833333   0.3367877   0.0000000), wk =   0.1666667
        k(   11) = (   0.0833333   0.4330127   0.0000000), wk =   0.1666667
        k(   12) = (   0.0833333   0.5292377   0.0000000), wk =   0.1666667
        k(   13) = (   0.1666667   0.2886751   0.0000000), wk =   0.0833333
        k(   14) = (   0.1666667   0.3849002   0.0000000), wk =   0.1666667
        k(   15) = (   0.1666667   0.4811252   0.0000000), wk =   0.1666667
        k(   16) = (   0.1666667   0.5773503   0.0000000), wk =   0.0833333
        k(   17) = (   0.2500000   0.4330127   0.0000000), wk =   0.0833333
        k(   18) = (   0.2500000   0.5292377   0.0000000), wk =   0.1666667
        k(   19) = (   0.3333333   0.5773503   0.0000000), wk =   0.0277778

     Dense  grid:    14861 G-vectors     FFT dimensions: (  18,  18, 108)

     Estimated max dynamical RAM per process >       3.84 MB

     Estimated total dynamical RAM >      26.89 MB

     Check: negative core charge=   -0.000016

     Initial potential from superposition of free atoms

     starting charge       7.9999, renormalised to       8.0000

     negative rho (up, down):  1.055E-03 0.000E+00
     Starting wfcs are    8 randomized atomic wfcs

     total cpu time spent up to now is        0.5 secs

     per-process dynamical memory:     8.4 Mb

     Self-consistent Calculation

     iteration #  1     ecut=    35.00 Ry     beta= 0.70
     Davidson diagonalization with overlap
     ethr =  1.00E-02,  avg # of iterations =  8.6

     negative rho (up, down):  2.276E-08 0.000E+00

     total cpu time spent up to now is        0.7 secs

     total energy              =     -23.87056394 Ry
     estimated scf accuracy    <       0.11825293 Ry

     iteration #  2     ecut=    35.00 Ry     beta= 0.70
     Davidson diagonalization with overlap
     ethr =  1.48E-03,  avg # of iterations =  4.1

     negative rho (up, down):  4.583E-04 0.000E+00

     total cpu time spent up to now is        0.8 secs

     total energy              =     -23.89808576 Ry
     estimated scf accuracy    <       0.01122230 Ry

     iteration #  3     ecut=    35.00 Ry     beta= 0.70
     Davidson diagonalization with overlap
     c_bands:  1 eigenvalues not converged
     c_bands:  1 eigenvalues not converged
     c_bands:  1 eigenvalues not converged
     c_bands:  3 eigenvalues not converged
     ethr =  1.40E-04,  avg # of iterations = 16.0

     negative rho (up, down):  4.399E-04 0.000E+00

     total cpu time spent up to now is        1.1 secs

     total energy              =     -23.90811681 Ry
     estimated scf accuracy    <       0.00236680 Ry

     iteration #  4     ecut=    35.00 Ry     beta= 0.70
     Davidson diagonalization with overlap
     c_bands:  2 eigenvalues not converged
     ethr =  2.96E-05,  avg # of iterations =  7.1

     negative rho (up, down):  6.809E-04 0.000E+00

     total cpu time spent up to now is        1.3 secs

     total energy              =     -23.90798200 Ry
     estimated scf accuracy    <       0.00151739 Ry

     iteration #  5     ecut=    35.00 Ry     beta= 0.70
     Davidson diagonalization with overlap
     ethr =  1.90E-05,  avg # of iterations =  6.6

     negative rho (up, down):  5.686E-04 0.000E+00

     total cpu time spent up to now is        1.5 secs

     total energy              =     -23.90777109 Ry
     estimated scf accuracy    <       0.00260158 Ry

     iteration #  6     ecut=    35.00 Ry     beta= 0.70
     Davidson diagonalization with overlap
     ethr =  1.90E-05,  avg # of iterations =  2.2

     negative rho (up, down):  5.628E-04 0.000E+00

     total cpu time spent up to now is        1.6 secs

     total energy              =     -23.90795111 Ry
     estimated scf accuracy    <       0.00012501 Ry

     iteration #  7     ecut=    35.00 Ry     beta= 0.70
     Davidson diagonalization with overlap
     c_bands:  2 eigenvalues not converged
     c_bands:  1 eigenvalues not converged
     c_bands:  1 eigenvalues not converged
     c_bands:  1 eigenvalues not converged
     c_bands:  1 eigenvalues not converged
     ethr =  1.56E-06,  avg # of iterations = 12.4

     negative rho (up, down):  5.615E-04 0.000E+00

     total cpu time spent up to now is        1.8 secs

     total energy              =     -23.90806242 Ry
     estimated scf accuracy    <       0.00000854 Ry

     iteration #  8     ecut=    35.00 Ry     beta= 0.70
     Davidson diagonalization with overlap
     c_bands:  2 eigenvalues not converged
     c_bands:  1 eigenvalues not converged
     c_bands:  1 eigenvalues not converged
     ethr =  1.07E-07,  avg # of iterations =  6.4

     negative rho (up, down):  5.388E-04 0.000E+00

     total cpu time spent up to now is        1.9 secs

     total energy              =     -23.90806771 Ry
     estimated scf accuracy    <       0.00000830 Ry

     iteration #  9     ecut=    35.00 Ry     beta= 0.70
     Davidson diagonalization with overlap
     c_bands:  2 eigenvalues not converged
     c_bands:  1 eigenvalues not converged
     ethr =  1.04E-07,  avg # of iterations =  6.1

     negative rho (up, down):  5.461E-04 0.000E+00

     total cpu time spent up to now is        2.1 secs

     total energy              =     -23.90806628 Ry
     estimated scf accuracy    <       0.00003103 Ry

     iteration # 10     ecut=    35.00 Ry     beta= 0.70
     Davidson diagonalization with overlap
     ethr =  1.04E-07,  avg # of iterations =  1.9

     negative rho (up, down):  5.461E-04 0.000E+00

     total cpu time spent up to now is        2.2 secs

     total energy              =     -23.90806611 Ry
     estimated scf accuracy    <       0.00000964 Ry

     iteration # 11     ecut=    35.00 Ry     beta= 0.70
     Davidson diagonalization with overlap
     ethr =  1.04E-07,  avg # of iterations =  1.1

     negative rho (up, down):  5.458E-04 0.000E+00

     total cpu time spent up to now is        2.3 secs

     total energy              =     -23.90806825 Ry
     estimated scf accuracy    <       0.00000776 Ry

     iteration # 12     ecut=    35.00 Ry     beta= 0.70
     Davidson diagonalization with overlap
     ethr =  9.70E-08,  avg # of iterations =  1.1

     negative rho (up, down):  5.493E-04 0.000E+00

     total cpu time spent up to now is        2.4 secs

     total energy              =     -23.90806151 Ry
     estimated scf accuracy    <       0.00001016 Ry

     iteration # 13     ecut=    35.00 Ry     beta= 0.70
     Davidson diagonalization with overlap
     ethr =  9.70E-08,  avg # of iterations =  3.6

     negative rho (up, down):  5.484E-04 0.000E+00

     total cpu time spent up to now is        2.5 secs

     total energy              =     -23.90806422 Ry
     estimated scf accuracy    <       0.00000054 Ry

     iteration # 14     ecut=    35.00 Ry     beta= 0.70
     Davidson diagonalization with overlap
     ethr =  6.70E-09,  avg # of iterations =  4.0

     negative rho (up, down):  5.483E-04 0.000E+00

     total cpu time spent up to now is        2.6 secs

     total energy              =     -23.90806449 Ry
     estimated scf accuracy    <       0.00000017 Ry

     iteration # 15     ecut=    35.00 Ry     beta= 0.70
     Davidson diagonalization with overlap
     ethr =  2.09E-09,  avg # of iterations =  1.8

     negative rho (up, down):  5.486E-04 0.000E+00

     total cpu time spent up to now is        2.7 secs

     total energy              =     -23.90806471 Ry
     estimated scf accuracy    <       0.00000014 Ry

     iteration # 16     ecut=    35.00 Ry     beta= 0.70
     Davidson diagonalization with overlap
     ethr =  1.69E-09,  avg # of iterations =  2.1

     negative rho (up, down):  5.491E-04 0.000E+00

     total cpu time spent up to now is        2.8 secs

     total energy              =     -23.90806506 Ry
     estimated scf accuracy    <       0.00000053 Ry

     iteration # 17     ecut=    35.00 Ry     beta= 0.70
     Davidson diagonalization with overlap
     ethr =  1.69E-09,  avg # of iterations =  3.8

     negative rho (up, down):  5.489E-04 0.000E+00

     total cpu time spent up to now is        2.9 secs

     total energy              =     -23.90806492 Ry
     estimated scf accuracy    <       0.00000133 Ry

     iteration # 18     ecut=    35.00 Ry     beta= 0.70
     Davidson diagonalization with overlap
     ethr =  1.69E-09,  avg # of iterations =  1.1

     negative rho (up, down):  5.494E-04 0.000E+00

     total cpu time spent up to now is        3.0 secs

     total energy              =     -23.90806526 Ry
     estimated scf accuracy    <       0.00000102 Ry

     iteration # 19     ecut=    35.00 Ry     beta= 0.70
     Davidson diagonalization with overlap
     ethr =  1.69E-09,  avg # of iterations =  1.4

     negative rho (up, down):  5.487E-04 0.000E+00

     total cpu time spent up to now is        3.1 secs

     total energy              =     -23.90806478 Ry
     estimated scf accuracy    <       0.00000165 Ry

     iteration # 20     ecut=    35.00 Ry     beta= 0.70
     Davidson diagonalization with overlap
     ethr =  1.69E-09,  avg # of iterations =  1.4

     negative rho (up, down):  5.473E-04 0.000E+00

     total cpu time spent up to now is        3.2 secs

     total energy              =     -23.90806422 Ry
     estimated scf accuracy    <       0.00000082 Ry

     iteration # 21     ecut=    35.00 Ry     beta= 0.70
     Davidson diagonalization with overlap
     ethr =  1.69E-09,  avg # of iterations =  4.1

     negative rho (up, down):  5.476E-04 0.000E+00

     total cpu time spent up to now is        3.4 secs

     total energy              =     -23.90806448 Ry
     estimated scf accuracy    <       0.00000010 Ry

     iteration # 22     ecut=    35.00 Ry     beta= 0.70
     Davidson diagonalization with overlap
     ethr =  1.28E-09,  avg # of iterations =  1.1

     negative rho (up, down):  5.480E-04 0.000E+00

     total cpu time spent up to now is        3.5 secs

     total energy              =     -23.90806446 Ry
     estimated scf accuracy    <       0.00000004 Ry

     iteration # 23     ecut=    35.00 Ry     beta= 0.70
     Davidson diagonalization with overlap
     ethr =  5.13E-10,  avg # of iterations =  1.9

     negative rho (up, down):  5.481E-04 0.000E+00

     total cpu time spent up to now is        3.6 secs

     End of self-consistent calculation

          k = 0.0000 0.0000 0.0000 (  1907 PWs)   bands (ev):

   -21.2506  -9.3525  -4.7912  -4.7912   1.1811   1.9237   2.1630   4.1768

          k = 0.0000 0.0962 0.0000 (  1889 PWs)   bands (ev):

   -21.0867  -9.1563  -5.4393  -5.1290   1.4069   2.1504   2.3888   4.4000

          k = 0.0000 0.1925 0.0000 (  1891 PWs)   bands (ev):

   -20.5967  -8.5728  -7.0735  -5.9218   2.0841   2.8293   3.0663   5.0672

          k = 0.0000 0.2887 0.0000 (  1870 PWs)   bands (ev):

   -19.7863  -9.1702  -7.6209  -6.8015   3.2111   3.9512   4.1945   5.5225

          k = 0.0000 0.3849 0.0000 (  1848 PWs)   bands (ev):

   -18.6676 -11.3725  -7.5347  -6.3514   3.1993   4.7819   5.5595   5.7480

          k = 0.0000 0.4811 0.0000 (  1838 PWs)   bands (ev):

   -17.2715 -13.4722  -8.0076  -4.9273   1.0626   5.7661   6.8114   7.5722

          k = 0.0000-0.5774 0.0000 (  1852 PWs)   bands (ev):

   -16.0047 -14.9815  -8.1704  -4.0817  -0.0367   5.6883   9.1843   9.2851

          k = 0.0833 0.1443 0.0000 (  1893 PWs)   bands (ev):

   -20.7597  -8.7662  -6.4707  -5.8065   1.8585   2.6033   2.8406   4.8458

          k = 0.0833 0.2406 0.0000 (  1862 PWs)   bands (ev):

   -20.1095  -8.1774  -7.9974  -6.8039   2.7611   3.5066   3.7442   5.7263

          k = 0.0833 0.3368 0.0000 (  1859 PWs)   bands (ev):

   -19.1449 -10.2497  -7.6899  -6.8803   4.1118   4.2064   4.8879   5.0972

          k = 0.0833 0.4330 0.0000 (  1850 PWs)   bands (ev):

   -17.8844 -12.3720  -8.3253  -5.4993   2.0107   5.8984   6.5837   6.6651

          k = 0.0833 0.5292 0.0000 (  1844 PWs)   bands (ev):

   -16.4039 -14.3141  -8.6541  -4.1886   0.2402   6.4255   8.1351   8.8719

          k = 0.1667 0.2887 0.0000 (  1865 PWs)   bands (ev):

   -19.3051  -9.5063  -8.1667  -7.0594   3.8878   4.6312   4.6719   4.8736

          k = 0.1667 0.3849 0.0000 (  1860 PWs)   bands (ev):

   -18.1972 -11.2329  -9.2228  -5.8050   2.7214   5.4588   6.1918   6.4509

          k = 0.1667 0.4811 0.0000 (  1855 PWs)   bands (ev):

   -16.8211 -13.1438  -9.7983  -4.3767   0.8067   7.4571   8.1395   8.3005

          k = 0.1667 0.5774 0.0000 (  1848 PWs)   bands (ev):

   -15.5840 -14.5813  -9.9829  -3.4829  -0.2627   8.2302   9.7784   9.7987

          k = 0.2500 0.4330 0.0000 (  1856 PWs)   bands (ev):

   -16.9690 -12.2659 -10.7071  -4.4608   1.1053   7.2384   7.8701   8.2460

          k = 0.2500 0.5292 0.0000 (  1855 PWs)   bands (ev):

   -15.5460 -13.6880 -11.4143  -3.0737  -0.4170   9.1034   9.3951  10.4111

          k = 0.3333 0.5774 0.0000 (  1860 PWs)   bands (ev):

   -14.3280 -14.3280 -12.3137  -1.7163  -1.7163   8.8846  11.1153  11.1153

     the Fermi energy is    -1.6784 ev

!    total energy              =     -23.90806446 Ry
     estimated scf accuracy    <          6.9E-09 Ry
     smearing contrib. (-TS)   =      -0.00018232 Ry
     internal energy E=F+TS    =     -23.90788214 Ry

     The total energy is F=E-TS. E is the sum of the following terms:
     one-electron contribution =    -157.39179976 Ry
     hartree contribution      =      80.15698336 Ry
     xc contribution           =      -8.30271284 Ry
     ewald contribution        =      61.62964710 Ry

     convergence has been achieved in  23 iterations

     negative rho (up, down):  5.481E-04 0.000E+00

     Forces acting on atoms (cartesian axes, Ry/au):

     atom    1 type  1   force =    -0.00000000   -0.00000000    0.00000000
     atom    2 type  1   force =     0.00000000    0.00000000    0.00000000

     Total force =     0.000000     Total SCF correction =     0.000000


     Computing stress (Cartesian axis) and pressure


     negative rho (up, down):  5.481E-04 0.000E+00
          total   stress  (Ry/bohr**3)                   (kbar)     P=       -3.35
  -0.00002136   0.00000000  -0.00000000           -3.14        0.00       -0.00
   0.00000000  -0.00002136   0.00000000            0.00       -3.14        0.00
  -0.00000000   0.00000000  -0.00002570           -0.00        0.00       -3.78


     Writing all to output data dir /home/rfa/Skripsi/DFT/dft-graphene/tmp/gr-1L.save/ :
     XML data file, charge density, pseudopotentials, collected wavefunctions

     init_run     :      0.26s CPU      0.45s WALL (       1 calls)
     electrons    :      5.16s CPU      3.06s WALL (       1 calls)
     forces       :      0.01s CPU      0.01s WALL (       1 calls)
     stress       :      0.03s CPU      0.03s WALL (       1 calls)

     Called by init_run:
     wfcinit      :      0.06s CPU      0.03s WALL (       1 calls)
     potinit      :      0.01s CPU      0.01s WALL (       1 calls)
     hinit0       :      0.19s CPU      0.40s WALL (       1 calls)

     Called by electrons:
     c_bands      :      4.54s CPU      2.54s WALL (      23 calls)
     sum_band     :      0.49s CPU      0.37s WALL (      23 calls)
     v_of_rho     :      0.05s CPU      0.06s WALL (      24 calls)
     newd         :      0.04s CPU      0.05s WALL (      24 calls)
     mix_rho      :      0.02s CPU      0.03s WALL (      23 calls)

     Called by c_bands:
     init_us_2    :      0.08s CPU      0.05s WALL (     931 calls)
     cegterg      :      4.29s CPU      2.35s WALL (     437 calls)

     Called by *egterg:
     cdiaghg      :      0.43s CPU      0.23s WALL (    2332 calls)
     h_psi        :      3.45s CPU      1.88s WALL (    2351 calls)
     s_psi        :      0.05s CPU      0.03s WALL (    2351 calls)
     g_psi        :      0.04s CPU      0.02s WALL (    1895 calls)

     Called by h_psi:
     h_psi:calbec :      0.11s CPU      0.06s WALL (    2351 calls)
     vloc_psi     :      3.24s CPU      1.75s WALL (    2351 calls)
     add_vuspsi   :      0.05s CPU      0.03s WALL (    2351 calls)

     General routines
     calbec       :      0.11s CPU      0.07s WALL (    3111 calls)
     fft          :      0.21s CPU      0.41s WALL (     289 calls)
     ffts         :      0.00s CPU      0.00s WALL (      23 calls)
     fftw         :      3.25s CPU      1.78s WALL (   25296 calls)

     Parallel routines

     PWSCF        :      5.53s CPU      3.71s WALL


   This run was terminated on:  15: 7:11  16Apr2025            

=------------------------------------------------------------------------------=
   JOB DONE.
=------------------------------------------------------------------------------=
