
     Program PWSCF v.7.4.1 starts on 21Apr2025 at 23:37:30 

     This program is part of the open-source Quantum ESPRESSO suite
     for quantum simulation of materials; please cite
         "P. Giannozzi et al., J. Phys.:Condens. Matter 21 395502 (2009);
         "P. Giannozzi et al., J. Phys.:Condens. Matter 29 465901 (2017);
         "P. Giannozzi et al., J. Chem. Phys. 152 154105 (2020);
          URL http://www.quantum-espresso.org", 
     in publications or presentations arising from this work. More details at
     http://www.quantum-espresso.org/quote

     Parallel version (MPI), running on     7 processors

     MPI processes distributed on     1 nodes
     13813 MiB available memory on the printing compute node when the environment starts

     Waiting for input...
     Reading input from standard input

     Current dimensions of program PWSCF are:
     Max number of different atomic species (ntypx) = 10
     Max number of k-points (npk) =  40000
     Max angular momentum in pseudopotentials (lmaxx) =  4

     R & G space division:  proc/nbgrp/npool/nimage =       7
     Subspace diagonalization in iterative solution of the eigenvalue problem:
     a serial algorithm will be used


     Parallelization info
     --------------------
     sticks:   dense  smooth     PW     G-vecs:    dense   smooth      PW
     Min          44      44     15                 4122     4122     733
     Max          45      45     16                 4159     4159     742
     Sum         313     313    109                29029    29029    5163

     Using Slab Decomposition



     bravais-lattice index     =            4
     lattice parameter (alat)  =       4.6561  a.u.
     unit-cell volume          =     532.1899 (a.u.)^3
     number of atoms/cell      =            2
     number of atomic types    =            1
     number of electrons       =         8.00
     number of Kohn-Sham states=            8
     kinetic-energy cutoff     =      55.0000  Ry
     charge density cutoff     =     220.0000  Ry
     scf convergence threshold =      1.0E-08
     mixing beta               =       0.7000
     number of iterations used =            8  plain     mixing
     Exchange-correlation= PBE
                           (   1   4   3   4   0   0   0)

     celldm(1)=   4.656107  celldm(2)=   0.000000  celldm(3)=   6.087896
     celldm(4)=   0.000000  celldm(5)=   0.000000  celldm(6)=   0.000000

     crystal axes: (cart. coord. in units of alat)
               a(1) = (   1.000000   0.000000   0.000000 )  
               a(2) = (  -0.500000   0.866025   0.000000 )  
               a(3) = (   0.000000   0.000000   6.087896 )  

     reciprocal axes: (cart. coord. in units 2 pi/alat)
               b(1) = (  1.000000  0.577350 -0.000000 )  
               b(2) = (  0.000000  1.154701  0.000000 )  
               b(3) = (  0.000000 -0.000000  0.164260 )  


     PseudoPot. # 1 for C  read from file:
     /run/media/rfa/SATA/Skripsi/DFT/dft-graphene/pseudo/C.pbe-n-rrkjus_psl.0.1.UPF
     MD5 check sum: 96a6a315177d77e6c95bf6fd3870f9e3
     Pseudo is Ultrasoft + core correction, Zval =  4.0
     Generated using &quot;atomic&quot; code by A. Dal Corso  v.6.3MaX
     Using radial grid of 1073 points,  4 beta functions with: 
                l(1) =   0
                l(2) =   0
                l(3) =   1
                l(4) =   1
     Q(r) pseudized with 0 coefficients 


     atomic species   valence    mass     pseudopotential
     C                 4.00    12.01070     C ( 1.00)

     24 Sym. Ops., with inversion, found



   Cartesian axes

     site n.     atom                  positions (alat units)
         1        C      tau(   1) = (   0.0000000   0.5773503   3.0439478  )
         2        C      tau(   2) = (   0.5000000   0.2886751   3.0439478  )

     number of k points=    19  Marzari-Vanderbilt smearing, width (Ry)=  0.0200
                       cart. coord. in units 2pi/alat
        k(    1) = (   0.0000000   0.0000000   0.0000000), wk =   0.0138889
        k(    2) = (   0.0000000   0.0962250   0.0000000), wk =   0.0833333
        k(    3) = (   0.0000000   0.1924501   0.0000000), wk =   0.0833333
        k(    4) = (   0.0000000   0.2886751   0.0000000), wk =   0.0833333
        k(    5) = (   0.0000000   0.3849002   0.0000000), wk =   0.0833333
        k(    6) = (   0.0000000   0.4811252   0.0000000), wk =   0.0833333
        k(    7) = (   0.0000000  -0.5773503   0.0000000), wk =   0.0416667
        k(    8) = (   0.0833333   0.1443376   0.0000000), wk =   0.0833333
        k(    9) = (   0.0833333   0.2405626   0.0000000), wk =   0.1666667
        k(   10) = (   0.0833333   0.3367877   0.0000000), wk =   0.1666667
        k(   11) = (   0.0833333   0.4330127   0.0000000), wk =   0.1666667
        k(   12) = (   0.0833333   0.5292377   0.0000000), wk =   0.1666667
        k(   13) = (   0.1666667   0.2886751   0.0000000), wk =   0.0833333
        k(   14) = (   0.1666667   0.3849002   0.0000000), wk =   0.1666667
        k(   15) = (   0.1666667   0.4811252   0.0000000), wk =   0.1666667
        k(   16) = (   0.1666667   0.5773503   0.0000000), wk =   0.0833333
        k(   17) = (   0.2500000   0.4330127   0.0000000), wk =   0.0833333
        k(   18) = (   0.2500000   0.5292377   0.0000000), wk =   0.1666667
        k(   19) = (   0.3333333   0.5773503   0.0000000), wk =   0.0277778

     Dense  grid:    29029 G-vectors     FFT dimensions: (  24,  24, 135)

     Estimated max dynamical RAM per process >       7.40 MB

     Estimated total dynamical RAM >      51.78 MB

     Check: negative core charge=   -0.000001

     Initial potential from superposition of free atoms

     starting charge       7.9999, renormalised to       8.0000

     negative rho (up, down):  1.928E-04 0.000E+00
     Starting wfcs are    8 randomized atomic wfcs

     total cpu time spent up to now is        0.6 secs

     per-process dynamical memory:    10.5 Mb

     Self-consistent Calculation

     iteration #  1     ecut=    55.00 Ry     beta= 0.70
     Davidson diagonalization with overlap
     ethr =  1.00E-02,  avg # of iterations =  8.3

     Threshold (ethr) on eigenvalues was too large:
     Diagonalizing with lowered threshold

     Davidson diagonalization with overlap
     ethr =  9.87E-04,  avg # of iterations =  4.5

     negative rho (up, down):  3.148E-06 0.000E+00

     total cpu time spent up to now is        1.3 secs

     total energy              =     -23.88093899 Ry
     estimated scf accuracy    <       0.19119554 Ry

     iteration #  2     ecut=    55.00 Ry     beta= 0.70
     Davidson diagonalization with overlap
     ethr =  2.39E-03,  avg # of iterations =  2.3

     negative rho (up, down):  1.860E-05 0.000E+00

     total cpu time spent up to now is        1.5 secs

     total energy              =     -23.89087331 Ry
     estimated scf accuracy    <       0.00628973 Ry

     iteration #  3     ecut=    55.00 Ry     beta= 0.70
     Davidson diagonalization with overlap
     c_bands:  1 eigenvalues not converged
     c_bands:  1 eigenvalues not converged
     c_bands:  3 eigenvalues not converged
     c_bands:  1 eigenvalues not converged
     c_bands:  3 eigenvalues not converged
     c_bands:  1 eigenvalues not converged
     c_bands:  1 eigenvalues not converged
     c_bands:  1 eigenvalues not converged
     c_bands:  1 eigenvalues not converged
     c_bands:  2 eigenvalues not converged
     c_bands:  1 eigenvalues not converged
     ethr =  7.86E-05,  avg # of iterations = 17.6

     negative rho (up, down):  1.787E-05 0.000E+00

     total cpu time spent up to now is        2.4 secs

     total energy              =     -23.91366052 Ry
     estimated scf accuracy    <       0.00806521 Ry

     iteration #  4     ecut=    55.00 Ry     beta= 0.70
     Davidson diagonalization with overlap
     ethr =  7.86E-05,  avg # of iterations =  3.7

     negative rho (up, down):  1.666E-05 0.000E+00

     total cpu time spent up to now is        2.6 secs

     total energy              =     -23.92187940 Ry
     estimated scf accuracy    <       0.01030783 Ry

     iteration #  5     ecut=    55.00 Ry     beta= 0.70
     Davidson diagonalization with overlap
     ethr =  7.86E-05,  avg # of iterations =  1.8

     negative rho (up, down):  2.518E-06 0.000E+00

     total cpu time spent up to now is        2.8 secs

     total energy              =     -23.93567251 Ry
     estimated scf accuracy    <       0.02413424 Ry

     iteration #  6     ecut=    55.00 Ry     beta= 0.70
     Davidson diagonalization with overlap
     ethr =  7.86E-05,  avg # of iterations =  3.7

     negative rho (up, down):  1.046E-05 0.000E+00

     total cpu time spent up to now is        3.1 secs

     total energy              =     -23.91879545 Ry
     estimated scf accuracy    <       0.06083241 Ry

     iteration #  7     ecut=    55.00 Ry     beta= 0.70
     Davidson diagonalization with overlap
     ethr =  7.86E-05,  avg # of iterations =  1.5

     negative rho (up, down):  1.702E-05 0.000E+00

     total cpu time spent up to now is        3.3 secs

     total energy              =     -23.91441135 Ry
     estimated scf accuracy    <       0.02753545 Ry

     iteration #  8     ecut=    55.00 Ry     beta= 0.70
     Davidson diagonalization with overlap
     ethr =  7.86E-05,  avg # of iterations =  2.1

     negative rho (up, down):  1.574E-05 0.000E+00

     total cpu time spent up to now is        3.5 secs

     total energy              =     -23.91649379 Ry
     estimated scf accuracy    <       0.01657309 Ry

     iteration #  9     ecut=    55.00 Ry     beta= 0.70
     Davidson diagonalization with overlap
     ethr =  7.86E-05,  avg # of iterations =  1.2

     negative rho (up, down):  1.875E-05 0.000E+00

     total cpu time spent up to now is        3.7 secs

     total energy              =     -23.91449840 Ry
     estimated scf accuracy    <       0.01859964 Ry

     iteration # 10     ecut=    55.00 Ry     beta= 0.70
     Davidson diagonalization with overlap
     ethr =  7.86E-05,  avg # of iterations =  1.0

     negative rho (up, down):  1.526E-05 0.000E+00

     total cpu time spent up to now is        3.8 secs

     total energy              =     -23.91614933 Ry
     estimated scf accuracy    <       0.01442064 Ry

     iteration # 11     ecut=    55.00 Ry     beta= 0.70
     Davidson diagonalization with overlap
     ethr =  7.86E-05,  avg # of iterations =  1.1

     negative rho (up, down):  8.466E-05 0.000E+00

     total cpu time spent up to now is        4.0 secs

     total energy              =     -23.91025484 Ry
     estimated scf accuracy    <       0.01712537 Ry

     iteration # 12     ecut=    55.00 Ry     beta= 0.70
     Davidson diagonalization with overlap
     ethr =  7.86E-05,  avg # of iterations =  1.1

     negative rho (up, down):  1.029E-04 0.000E+00

     total cpu time spent up to now is        4.2 secs

     total energy              =     -23.90888737 Ry
     estimated scf accuracy    <       0.00547764 Ry

     iteration # 13     ecut=    55.00 Ry     beta= 0.70
     Davidson diagonalization with overlap
     ethr =  6.85E-05,  avg # of iterations =  2.0

     negative rho (up, down):  9.871E-05 0.000E+00

     total cpu time spent up to now is        4.5 secs

     total energy              =     -23.90920831 Ry
     estimated scf accuracy    <       0.00168316 Ry

     iteration # 14     ecut=    55.00 Ry     beta= 0.70
     Davidson diagonalization with overlap
     ethr =  2.10E-05,  avg # of iterations =  4.2

     negative rho (up, down):  9.866E-05 0.000E+00

     total cpu time spent up to now is        4.7 secs

     total energy              =     -23.90956016 Ry
     estimated scf accuracy    <       0.00039684 Ry

     iteration # 15     ecut=    55.00 Ry     beta= 0.70
     Davidson diagonalization with overlap
     c_bands:  2 eigenvalues not converged
     c_bands:  1 eigenvalues not converged
     ethr =  4.96E-06,  avg # of iterations =  6.6

     negative rho (up, down):  9.820E-05 0.000E+00

     total cpu time spent up to now is        5.0 secs

     total energy              =     -23.90966555 Ry
     estimated scf accuracy    <       0.00030657 Ry

     iteration # 16     ecut=    55.00 Ry     beta= 0.70
     Davidson diagonalization with overlap
     ethr =  3.83E-06,  avg # of iterations =  3.3

     negative rho (up, down):  9.456E-05 0.000E+00

     total cpu time spent up to now is        5.3 secs

     total energy              =     -23.90972971 Ry
     estimated scf accuracy    <       0.00020940 Ry

     iteration # 17     ecut=    55.00 Ry     beta= 0.70
     Davidson diagonalization with overlap
     c_bands:  1 eigenvalues not converged
     ethr =  2.62E-06,  avg # of iterations =  8.2

     negative rho (up, down):  8.896E-05 0.000E+00

     total cpu time spent up to now is        5.7 secs

     total energy              =     -23.90979422 Ry
     estimated scf accuracy    <       0.00044657 Ry

     iteration # 18     ecut=    55.00 Ry     beta= 0.70
     Davidson diagonalization with overlap
     ethr =  2.62E-06,  avg # of iterations =  2.3

     negative rho (up, down):  9.080E-05 0.000E+00

     total cpu time spent up to now is        5.9 secs

     total energy              =     -23.90989782 Ry
     estimated scf accuracy    <       0.00027832 Ry

     iteration # 19     ecut=    55.00 Ry     beta= 0.70
     Davidson diagonalization with overlap
     ethr =  2.62E-06,  avg # of iterations =  1.6

     negative rho (up, down):  8.954E-05 0.000E+00

     total cpu time spent up to now is        6.1 secs

     total energy              =     -23.90990581 Ry
     estimated scf accuracy    <       0.00046573 Ry

     iteration # 20     ecut=    55.00 Ry     beta= 0.70
     Davidson diagonalization with overlap
     ethr =  2.62E-06,  avg # of iterations =  1.1

     negative rho (up, down):  8.693E-05 0.000E+00

     total cpu time spent up to now is        6.3 secs

     total energy              =     -23.90983899 Ry
     estimated scf accuracy    <       0.00047657 Ry

     iteration # 21     ecut=    55.00 Ry     beta= 0.70
     Davidson diagonalization with overlap
     ethr =  2.62E-06,  avg # of iterations =  1.2

     negative rho (up, down):  8.683E-05 0.000E+00

     total cpu time spent up to now is        6.5 secs

     total energy              =     -23.90982193 Ry
     estimated scf accuracy    <       0.00035319 Ry

     iteration # 22     ecut=    55.00 Ry     beta= 0.70
     Davidson diagonalization with overlap
     ethr =  2.62E-06,  avg # of iterations =  1.1

     negative rho (up, down):  8.804E-05 0.000E+00

     total cpu time spent up to now is        6.7 secs

     total energy              =     -23.90976782 Ry
     estimated scf accuracy    <       0.00031887 Ry

     iteration # 23     ecut=    55.00 Ry     beta= 0.70
     Davidson diagonalization with overlap
     ethr =  2.62E-06,  avg # of iterations =  1.0

     negative rho (up, down):  8.726E-05 0.000E+00

     total cpu time spent up to now is        6.9 secs

     total energy              =     -23.90966658 Ry
     estimated scf accuracy    <       0.00021955 Ry

     iteration # 24     ecut=    55.00 Ry     beta= 0.70
     Davidson diagonalization with overlap
     ethr =  2.62E-06,  avg # of iterations =  1.7

     negative rho (up, down):  8.266E-05 0.000E+00

     total cpu time spent up to now is        7.1 secs

     total energy              =     -23.90970943 Ry
     estimated scf accuracy    <       0.00005401 Ry

     iteration # 25     ecut=    55.00 Ry     beta= 0.70
     Davidson diagonalization with overlap
     ethr =  6.75E-07,  avg # of iterations =  5.4

     negative rho (up, down):  9.083E-05 0.000E+00

     total cpu time spent up to now is        7.4 secs

     total energy              =     -23.90962313 Ry
     estimated scf accuracy    <       0.00034496 Ry

     iteration # 26     ecut=    55.00 Ry     beta= 0.70
     Davidson diagonalization with overlap
     ethr =  6.75E-07,  avg # of iterations =  4.4

     negative rho (up, down):  9.235E-05 0.000E+00

     total cpu time spent up to now is        7.6 secs

     total energy              =     -23.90967765 Ry
     estimated scf accuracy    <       0.00000055 Ry

     iteration # 27     ecut=    55.00 Ry     beta= 0.70
     Davidson diagonalization with overlap
     ethr =  6.92E-09,  avg # of iterations =  5.5

     negative rho (up, down):  9.197E-05 0.000E+00

     total cpu time spent up to now is        7.9 secs

     total energy              =     -23.90968211 Ry
     estimated scf accuracy    <       0.00000135 Ry

     iteration # 28     ecut=    55.00 Ry     beta= 0.70
     Davidson diagonalization with overlap
     ethr =  6.92E-09,  avg # of iterations =  1.3

     negative rho (up, down):  9.108E-05 0.000E+00

     total cpu time spent up to now is        8.1 secs

     total energy              =     -23.90968203 Ry
     estimated scf accuracy    <       0.00000035 Ry

     iteration # 29     ecut=    55.00 Ry     beta= 0.70
     Davidson diagonalization with overlap
     ethr =  4.37E-09,  avg # of iterations =  4.1

     negative rho (up, down):  9.135E-05 0.000E+00

     total cpu time spent up to now is        8.4 secs

     total energy              =     -23.90968215 Ry
     estimated scf accuracy    <       0.00000110 Ry

     iteration # 30     ecut=    55.00 Ry     beta= 0.70
     Davidson diagonalization with overlap
     ethr =  4.37E-09,  avg # of iterations =  1.1

     negative rho (up, down):  9.152E-05 0.000E+00

     total cpu time spent up to now is        8.6 secs

     total energy              =     -23.90968206 Ry
     estimated scf accuracy    <       0.00000034 Ry

     iteration # 31     ecut=    55.00 Ry     beta= 0.70
     Davidson diagonalization with overlap
     ethr =  4.24E-09,  avg # of iterations =  2.0

     negative rho (up, down):  9.172E-05 0.000E+00

     total cpu time spent up to now is        8.8 secs

     total energy              =     -23.90968203 Ry
     estimated scf accuracy    <       0.00000011 Ry

     iteration # 32     ecut=    55.00 Ry     beta= 0.70
     Davidson diagonalization with overlap
     ethr =  1.37E-09,  avg # of iterations =  4.1

     negative rho (up, down):  9.164E-05 0.000E+00

     total cpu time spent up to now is        9.0 secs

     total energy              =     -23.90968210 Ry
     estimated scf accuracy    <       0.00000002 Ry

     iteration # 33     ecut=    55.00 Ry     beta= 0.70
     Davidson diagonalization with overlap
     ethr =  2.57E-10,  avg # of iterations =  3.4

     negative rho (up, down):  9.163E-05 0.000E+00

     total cpu time spent up to now is        9.2 secs

     End of self-consistent calculation

          k = 0.0000 0.0000 0.0000 (  3727 PWs)   bands (ev):

   -21.2478  -9.3494  -4.7885  -4.7885   1.4886   2.3572   2.7063   4.6328

          k = 0.0000 0.0962 0.0000 (  3733 PWs)   bands (ev):

   -21.0838  -9.1532  -5.4374  -5.1269   1.7123   2.5827   2.9332   4.8558

          k = 0.0000 0.1925 0.0000 (  3703 PWs)   bands (ev):

   -20.5938  -8.5697  -7.0717  -5.9194   2.3832   3.2577   3.6143   5.5232

          k = 0.0000 0.2887 0.0000 (  3676 PWs)   bands (ev):

   -19.7834  -9.1674  -7.6182  -6.7993   3.4993   4.3649   4.7483   5.5494

          k = 0.0000 0.3849 0.0000 (  3662 PWs)   bands (ev):

   -18.6647 -11.3691  -7.5329  -6.3490   3.2009   5.0492   5.9719   6.0070

          k = 0.0000 0.4811 0.0000 (  3654 PWs)   bands (ev):

   -17.2686 -13.4688  -8.0059  -4.9252   1.0636   5.7633   7.0649   7.9662

          k = 0.0000-0.5774 0.0000 (  3600 PWs)   bands (ev):

   -16.0020 -14.9778  -8.1683  -4.0799  -0.0354   5.6856   9.3793   9.5240

          k = 0.0833 0.1443 0.0000 (  3705 PWs)   bands (ev):

   -20.7569  -8.7632  -6.4687  -5.8042   2.1598   3.0331   3.3874   5.3018

          k = 0.0833 0.2406 0.0000 (  3670 PWs)   bands (ev):

   -20.1067  -8.1756  -7.9945  -6.8020   3.0541   3.9301   4.2957   6.1781

          k = 0.0833 0.3368 0.0000 (  3669 PWs)   bands (ev):

   -19.1420 -10.2467  -7.6882  -6.8777   4.2137   4.3911   5.2971   5.6558

          k = 0.0833 0.4330 0.0000 (  3654 PWs)   bands (ev):

   -17.8816 -12.3686  -8.3230  -5.4971   2.0117   6.1446   6.6139   7.0632

          k = 0.0833 0.5292 0.0000 (  3630 PWs)   bands (ev):

   -16.4010 -14.3106  -8.6514  -4.1867   0.2413   6.4221   8.3677   9.2265

          k = 0.1667 0.2887 0.0000 (  3687 PWs)   bands (ev):

   -19.3021  -9.5036  -8.1638  -7.0567   4.1702   4.6716   5.0450   5.4313

          k = 0.1667 0.3849 0.0000 (  3677 PWs)   bands (ev):

   -18.1943 -11.2297  -9.2195  -5.8027   2.7217   5.7240   6.5841   7.0181

          k = 0.1667 0.4811 0.0000 (  3638 PWs)   bands (ev):

   -16.8182 -13.1403  -9.7948  -4.3748   0.8075   7.6891   8.3304   8.4708

          k = 0.1667 0.5774 0.0000 (  3632 PWs)   bands (ev):

   -15.5812 -14.5777  -9.9795  -3.4813  -0.2617   8.2271   9.8959   9.9449

          k = 0.2500 0.4330 0.0000 (  3641 PWs)   bands (ev):

   -16.9660 -12.2627 -10.7036  -4.4589   1.1058   7.4789   8.1825   8.8269

          k = 0.2500 0.5292 0.0000 (  3658 PWs)   bands (ev):

   -15.5430 -13.6847 -11.4106  -3.0720  -0.4159   9.1626   9.5824  10.4887

          k = 0.3333 0.5774 0.0000 (  3666 PWs)   bands (ev):

   -14.3249 -14.3249 -12.3095  -1.7149  -1.7149   8.9034  11.1684  11.1685

     the Fermi energy is    -1.6770 ev

!    total energy              =     -23.90968210 Ry
     estimated scf accuracy    <          9.2E-10 Ry
     smearing contrib. (-TS)   =      -0.00018232 Ry
     internal energy E=F+TS    =     -23.90949978 Ry

     The total energy is F=E-TS. E is the sum of the following terms:
     one-electron contribution =    -157.39658290 Ry
     hartree contribution      =      80.16093625 Ry
     xc contribution           =      -8.30350023 Ry
     ewald contribution        =      61.62964709 Ry

     convergence has been achieved in  33 iterations

     negative rho (up, down):  9.163E-05 0.000E+00

     Forces acting on atoms (cartesian axes, Ry/au):

     atom    1 type  1   force =     0.00000000    0.00000000    0.00000000
     atom    2 type  1   force =     0.00000000    0.00000000    0.00000000

     Total force =     0.000000     Total SCF correction =     0.000000


     Computing stress (Cartesian axis) and pressure


     negative rho (up, down):  9.163E-05 0.000E+00
          total   stress  (Ry/bohr**3)                   (kbar)     P=       -0.22
  -0.00000087   0.00000000   0.00000000           -0.13        0.00        0.00
   0.00000000  -0.00000087   0.00000000            0.00       -0.13        0.00
   0.00000000   0.00000000  -0.00000279            0.00        0.00       -0.41


     Writing all to output data dir /run/media/rfa/SATA/Skripsi/DFT/dft-graphene/tmp/gr-1L.save/ :
     XML data file, charge density, pseudopotentials, collected wavefunctions

     init_run     :      0.40s CPU      0.55s WALL (       1 calls)
     electrons    :     15.39s CPU      8.62s WALL (       1 calls)
     forces       :      0.04s CPU      0.02s WALL (       1 calls)
     stress       :      0.11s CPU      0.08s WALL (       1 calls)

     Called by init_run:
     wfcinit      :      0.15s CPU      0.10s WALL (       1 calls)
     potinit      :      0.01s CPU      0.01s WALL (       1 calls)
     hinit0       :      0.21s CPU      0.40s WALL (       1 calls)

     Called by electrons:
     c_bands      :     12.41s CPU      6.84s WALL (      34 calls)
     sum_band     :      2.29s CPU      1.24s WALL (      34 calls)
     v_of_rho     :      0.24s CPU      0.22s WALL (      34 calls)
     newd         :      0.22s CPU      0.20s WALL (      34 calls)
     mix_rho      :      0.20s CPU      0.10s WALL (      34 calls)

     Called by c_bands:
     init_us_2    :      0.32s CPU      0.17s WALL (    1349 calls)
     cegterg      :     11.75s CPU      6.44s WALL (     646 calls)

     Called by *egterg:
     cdiaghg      :      0.63s CPU      0.34s WALL (    2816 calls)
     h_psi        :      9.88s CPU      5.44s WALL (    2854 calls)
     s_psi        :      0.14s CPU      0.06s WALL (    2854 calls)
     g_psi        :      0.08s CPU      0.05s WALL (    2189 calls)

     Called by h_psi:
     h_psi:calbec :      0.53s CPU      0.29s WALL (    2854 calls)
     vloc_psi     :      9.05s CPU      4.98s WALL (    2854 calls)
     add_vuspsi   :      0.17s CPU      0.10s WALL (    2854 calls)

     General routines
     calbec       :      0.60s CPU      0.32s WALL (    3823 calls)
     fft          :      0.34s CPU      0.51s WALL (     400 calls)
     ffts         :      0.02s CPU      0.01s WALL (      34 calls)
     fftw         :      9.31s CPU      5.12s WALL (   34832 calls)

     Parallel routines

     PWSCF        :     16.04s CPU      9.53s WALL


   This run was terminated on:  23:37:40  21Apr2025            

=------------------------------------------------------------------------------=
   JOB DONE.
=------------------------------------------------------------------------------=
