
     Program PWSCF v.7.4.1 starts on 16Apr2025 at 15: 6:56 

     This program is part of the open-source Quantum ESPRESSO suite
     for quantum simulation of materials; please cite
         "P. Giannozzi et al., J. Phys.:Condens. Matter 21 395502 (2009);
         "P. Giannozzi et al., J. Phys.:Condens. Matter 29 465901 (2017);
         "P. Giannozzi et al., J. Chem. Phys. 152 154105 (2020);
          URL http://www.quantum-espresso.org", 
     in publications or presentations arising from this work. More details at
     http://www.quantum-espresso.org/quote

     Parallel version (MPI), running on     7 processors

     MPI processes distributed on     1 nodes
     15168 MiB available memory on the printing compute node when the environment starts

     Waiting for input...
     Reading input from standard input

     Current dimensions of program PWSCF are:
     Max number of different atomic species (ntypx) = 10
     Max number of k-points (npk) =  40000
     Max angular momentum in pseudopotentials (lmaxx) =  4

     R & G space division:  proc/nbgrp/npool/nimage =       7
     Subspace diagonalization in iterative solution of the eigenvalue problem:
     a serial algorithm will be used


     Parallelization info
     --------------------
     sticks:   dense  smooth     PW     G-vecs:    dense   smooth      PW
     Min          17      17      5                  919      919     181
     Max          18      18      6                  934      934     204
     Sum         121     121     37                 6489     6489    1321

     Using Slab Decomposition



     bravais-lattice index     =            4
     lattice parameter (alat)  =       4.6561  a.u.
     unit-cell volume          =     532.1899 (a.u.)^3
     number of atoms/cell      =            2
     number of atomic types    =            1
     number of electrons       =         8.00
     number of Kohn-Sham states=            8
     kinetic-energy cutoff     =      20.0000  Ry
     charge density cutoff     =      80.0000  Ry
     scf convergence threshold =      1.0E-08
     mixing beta               =       0.7000
     number of iterations used =            8  plain     mixing
     Exchange-correlation= PBE
                           (   1   4   3   4   0   0   0)

     celldm(1)=   4.656107  celldm(2)=   0.000000  celldm(3)=   6.087896
     celldm(4)=   0.000000  celldm(5)=   0.000000  celldm(6)=   0.000000

     crystal axes: (cart. coord. in units of alat)
               a(1) = (   1.000000   0.000000   0.000000 )  
               a(2) = (  -0.500000   0.866025   0.000000 )  
               a(3) = (   0.000000   0.000000   6.087896 )  

     reciprocal axes: (cart. coord. in units 2 pi/alat)
               b(1) = (  1.000000  0.577350 -0.000000 )  
               b(2) = (  0.000000  1.154701  0.000000 )  
               b(3) = (  0.000000 -0.000000  0.164260 )  


     PseudoPot. # 1 for C  read from file:
     /home/rfa/Skripsi/DFT/dft-graphene/pseudo/C.pbe-n-rrkjus_psl.0.1.UPF
     MD5 check sum: 96a6a315177d77e6c95bf6fd3870f9e3
     Pseudo is Ultrasoft + core correction, Zval =  4.0
     Generated using &quot;atomic&quot; code by A. Dal Corso  v.6.3MaX
     Using radial grid of 1073 points,  4 beta functions with: 
                l(1) =   0
                l(2) =   0
                l(3) =   1
                l(4) =   1
     Q(r) pseudized with 0 coefficients 


     atomic species   valence    mass     pseudopotential
     C                 4.00    12.01070     C ( 1.00)

     24 Sym. Ops., with inversion, found



   Cartesian axes

     site n.     atom                  positions (alat units)
         1        C      tau(   1) = (   0.0000000   0.5773503   3.0439478  )
         2        C      tau(   2) = (   0.5000000   0.2886751   3.0439478  )

     number of k points=    19  Marzari-Vanderbilt smearing, width (Ry)=  0.0200
                       cart. coord. in units 2pi/alat
        k(    1) = (   0.0000000   0.0000000   0.0000000), wk =   0.0138889
        k(    2) = (   0.0000000   0.0962250   0.0000000), wk =   0.0833333
        k(    3) = (   0.0000000   0.1924501   0.0000000), wk =   0.0833333
        k(    4) = (   0.0000000   0.2886751   0.0000000), wk =   0.0833333
        k(    5) = (   0.0000000   0.3849002   0.0000000), wk =   0.0833333
        k(    6) = (   0.0000000   0.4811252   0.0000000), wk =   0.0833333
        k(    7) = (   0.0000000  -0.5773503   0.0000000), wk =   0.0416667
        k(    8) = (   0.0833333   0.1443376   0.0000000), wk =   0.0833333
        k(    9) = (   0.0833333   0.2405626   0.0000000), wk =   0.1666667
        k(   10) = (   0.0833333   0.3367877   0.0000000), wk =   0.1666667
        k(   11) = (   0.0833333   0.4330127   0.0000000), wk =   0.1666667
        k(   12) = (   0.0833333   0.5292377   0.0000000), wk =   0.1666667
        k(   13) = (   0.1666667   0.2886751   0.0000000), wk =   0.0833333
        k(   14) = (   0.1666667   0.3849002   0.0000000), wk =   0.1666667
        k(   15) = (   0.1666667   0.4811252   0.0000000), wk =   0.1666667
        k(   16) = (   0.1666667   0.5773503   0.0000000), wk =   0.0833333
        k(   17) = (   0.2500000   0.4330127   0.0000000), wk =   0.0833333
        k(   18) = (   0.2500000   0.5292377   0.0000000), wk =   0.1666667
        k(   19) = (   0.3333333   0.5773503   0.0000000), wk =   0.0277778

     Dense  grid:     6489 G-vectors     FFT dimensions: (  15,  15,  81)

     Estimated max dynamical RAM per process >       1.79 MB

     Estimated total dynamical RAM >      12.53 MB

     Check: negative core charge=   -0.000215

     Initial potential from superposition of free atoms

     starting charge       7.9999, renormalised to       8.0000

     negative rho (up, down):  9.186E-03 0.000E+00
     Starting wfcs are    8 randomized atomic wfcs

     total cpu time spent up to now is        0.2 secs

     per-process dynamical memory:     7.7 Mb

     Self-consistent Calculation

     iteration #  1     ecut=    20.00 Ry     beta= 0.70
     Davidson diagonalization with overlap
     ethr =  1.00E-02,  avg # of iterations =  9.3

     negative rho (up, down):  3.578E-03 0.000E+00

     total cpu time spent up to now is        0.3 secs

     total energy              =     -23.57311605 Ry
     estimated scf accuracy    <       0.12260644 Ry

     iteration #  2     ecut=    20.00 Ry     beta= 0.70
     Davidson diagonalization with overlap
     ethr =  1.53E-03,  avg # of iterations =  3.3

     negative rho (up, down):  2.142E-03 0.000E+00

     total cpu time spent up to now is        0.3 secs

     total energy              =     -23.58463663 Ry
     estimated scf accuracy    <       0.00254170 Ry

     iteration #  3     ecut=    20.00 Ry     beta= 0.70
     Davidson diagonalization with overlap
     c_bands:  1 eigenvalues not converged
     ethr =  3.18E-05,  avg # of iterations = 11.5

     negative rho (up, down):  1.971E-03 0.000E+00

     total cpu time spent up to now is        0.4 secs

     total energy              =     -23.58551238 Ry
     estimated scf accuracy    <       0.00025366 Ry

     iteration #  4     ecut=    20.00 Ry     beta= 0.70
     Davidson diagonalization with overlap
     ethr =  3.17E-06,  avg # of iterations =  4.3

     negative rho (up, down):  1.953E-03 0.000E+00

     total cpu time spent up to now is        0.5 secs

     total energy              =     -23.58554609 Ry
     estimated scf accuracy    <       0.00009569 Ry

     iteration #  5     ecut=    20.00 Ry     beta= 0.70
     Davidson diagonalization with overlap
     ethr =  1.20E-06,  avg # of iterations =  2.7

     negative rho (up, down):  1.956E-03 0.000E+00

     total cpu time spent up to now is        0.5 secs

     total energy              =     -23.58556537 Ry
     estimated scf accuracy    <       0.00000093 Ry

     iteration #  6     ecut=    20.00 Ry     beta= 0.70
     Davidson diagonalization with overlap
     ethr =  1.16E-08,  avg # of iterations =  3.0

     negative rho (up, down):  1.957E-03 0.000E+00

     total cpu time spent up to now is        0.6 secs

     End of self-consistent calculation

          k = 0.0000 0.0000 0.0000 (   815 PWs)   bands (ev):

   -22.1596  -9.4531  -4.8119  -4.8119  -0.0155   0.6304   1.0597   3.0580

          k = 0.0000 0.0962 0.0000 (   825 PWs)   bands (ev):

   -21.9870  -9.2406  -5.5900  -5.2561   0.2126   0.8587   1.2869   3.2837

          k = 0.0000 0.1925 0.0000 (   824 PWs)   bands (ev):

   -21.4771  -8.6399  -7.3123  -6.0107   0.8964   1.5412   1.9673   3.9562

          k = 0.0000 0.2887 0.0000 (   796 PWs)   bands (ev):

   -20.6236  -9.2910  -7.6266  -6.8197   2.0360   2.6763   3.1015   5.0541

          k = 0.0000 0.3849 0.0000 (   806 PWs)   bands (ev):

   -19.4671 -11.6407  -7.6290  -6.3291   3.5578   3.6284   4.3212   4.6849

          k = 0.0000 0.4811 0.0000 (   800 PWs)   bands (ev):

   -18.0127 -13.9021  -8.0674  -4.7479   1.3230   5.1291   5.6734   6.3294

          k = 0.0000-0.5774 0.0000 (   806 PWs)   bands (ev):

   -16.7811 -15.4334  -8.2717  -3.8242   0.0853   4.9823   8.1552   8.1644

          k = 0.0833 0.1443 0.0000 (   809 PWs)   bands (ev):

   -21.6412  -8.8078  -6.5675  -5.8560   0.6689   1.3153   1.7412   3.7360

          k = 0.0833 0.2406 0.0000 (   817 PWs)   bands (ev):

   -20.9702  -8.3429  -8.0279  -6.9585   1.5798   2.2235   2.6472   4.6266

          k = 0.0833 0.3368 0.0000 (   808 PWs)   bands (ev):

   -19.9646 -10.5106  -7.8087  -6.9002   2.9458   3.5720   4.0063   4.7422

          k = 0.0833 0.4330 0.0000 (   803 PWs)   bands (ev):

   -18.6558 -12.7380  -8.4476  -5.4110   2.3531   4.7644   5.4147   5.8146

          k = 0.0833 0.5292 0.0000 (   808 PWs)   bands (ev):

   -17.1415 -14.7984  -8.7930  -4.0212   0.4113   5.8459   7.0302   7.6623

          k = 0.1667 0.2887 0.0000 (   809 PWs)   bands (ev):

   -20.1339  -9.7166  -8.3619  -7.0721   2.7181   3.3563   3.7794   5.3147

          k = 0.1667 0.3849 0.0000 (   802 PWs)   bands (ev):

   -18.9812 -11.5907  -9.4102  -5.7581   3.2225   4.3096   4.9397   5.3623

          k = 0.1667 0.4811 0.0000 (   790 PWs)   bands (ev):

   -17.5523 -13.5463  -9.9758  -4.1962   1.1971   6.3503   6.9497   7.3900

          k = 0.1667 0.5774 0.0000 (   796 PWs)   bands (ev):

   -16.3271 -15.0188 -10.1964  -3.2521  -0.0533   7.9431   8.8239   8.8256

          k = 0.2500 0.4330 0.0000 (   799 PWs)   bands (ev):

   -17.7094 -12.7327 -10.9539  -4.2762   1.5129   6.1226   6.6955   7.1634

          k = 0.2500 0.5292 0.0000 (   796 PWs)   bands (ev):

   -16.2333 -14.1996 -11.6449  -2.8796  -0.0897   8.3715   8.4022   9.3918

          k = 0.3333 0.5774 0.0000 (   783 PWs)   bands (ev):

   -14.9374 -14.9374 -12.3613  -1.4314  -1.4314   8.3011  10.7006  10.7007

     the Fermi energy is    -1.3935 ev

!    total energy              =     -23.58556575 Ry
     estimated scf accuracy    <          8.4E-09 Ry
     smearing contrib. (-TS)   =      -0.00018232 Ry
     internal energy E=F+TS    =     -23.58538342 Ry

     The total energy is F=E-TS. E is the sum of the following terms:
     one-electron contribution =    -156.63551552 Ry
     hartree contribution      =      79.64964877 Ry
     xc contribution           =      -8.22916379 Ry
     ewald contribution        =      61.62964712 Ry

     convergence has been achieved in   6 iterations

     negative rho (up, down):  1.957E-03 0.000E+00

     Forces acting on atoms (cartesian axes, Ry/au):

     atom    1 type  1   force =     0.00000000    0.00000000    0.00000000
     atom    2 type  1   force =     0.00000000    0.00000000    0.00000000

     Total force =     0.000000     Total SCF correction =     0.000000


     Computing stress (Cartesian axis) and pressure


     negative rho (up, down):  1.957E-03 0.000E+00
          total   stress  (Ry/bohr**3)                   (kbar)     P=     -329.88
  -0.00199877   0.00000000   0.00000000         -294.03        0.00        0.00
   0.00000000  -0.00199877   0.00000000            0.00     -294.03        0.00
   0.00000000   0.00000000  -0.00272990            0.00        0.00     -401.58


     Writing all to output data dir /home/rfa/Skripsi/DFT/dft-graphene/tmp/gr-1L.save/ :
     XML data file, charge density, pseudopotentials, collected wavefunctions

     init_run     :      0.07s CPU      0.10s WALL (       1 calls)
     electrons    :      0.70s CPU      0.44s WALL (       1 calls)
     forces       :      0.00s CPU      0.00s WALL (       1 calls)
     stress       :      0.01s CPU      0.02s WALL (       1 calls)

     Called by init_run:
     wfcinit      :      0.02s CPU      0.01s WALL (       1 calls)
     potinit      :      0.00s CPU      0.00s WALL (       1 calls)
     hinit0       :      0.04s CPU      0.07s WALL (       1 calls)

     Called by electrons:
     c_bands      :      0.62s CPU      0.38s WALL (       6 calls)
     sum_band     :      0.07s CPU      0.04s WALL (       6 calls)
     v_of_rho     :      0.01s CPU      0.01s WALL (       7 calls)
     newd         :      0.00s CPU      0.01s WALL (       7 calls)
     mix_rho      :      0.00s CPU      0.00s WALL (       6 calls)

     Called by c_bands:
     init_us_2    :      0.01s CPU      0.01s WALL (     285 calls)
     cegterg      :      0.58s CPU      0.35s WALL (     114 calls)

     Called by *egterg:
     cdiaghg      :      0.13s CPU      0.07s WALL (     762 calls)
     h_psi        :      0.37s CPU      0.23s WALL (     781 calls)
     s_psi        :      0.01s CPU      0.00s WALL (     781 calls)
     g_psi        :      0.00s CPU      0.00s WALL (     648 calls)

     Called by h_psi:
     h_psi:calbec :      0.02s CPU      0.01s WALL (     781 calls)
     vloc_psi     :      0.33s CPU      0.20s WALL (     781 calls)
     add_vuspsi   :      0.01s CPU      0.01s WALL (     781 calls)

     General routines
     calbec       :      0.02s CPU      0.02s WALL (    1218 calls)
     fft          :      0.03s CPU      0.06s WALL (     102 calls)
     ffts         :      0.00s CPU      0.00s WALL (       6 calls)
     fftw         :      0.32s CPU      0.19s WALL (    7594 calls)

     Parallel routines

     PWSCF        :      0.85s CPU      0.67s WALL


   This run was terminated on:  15: 6:57  16Apr2025            

=------------------------------------------------------------------------------=
   JOB DONE.
=------------------------------------------------------------------------------=
