
     Program PWSCF v.7.4.1 starts on 21Apr2025 at 23:37: 6 

     This program is part of the open-source Quantum ESPRESSO suite
     for quantum simulation of materials; please cite
         "P. Giannozzi et al., J. Phys.:Condens. Matter 21 395502 (2009);
         "P. Giannozzi et al., J. Phys.:Condens. Matter 29 465901 (2017);
         "P. Giannozzi et al., J. Chem. Phys. 152 154105 (2020);
          URL http://www.quantum-espresso.org", 
     in publications or presentations arising from this work. More details at
     http://www.quantum-espresso.org/quote

     Parallel version (MPI), running on     7 processors

     MPI processes distributed on     1 nodes
     13827 MiB available memory on the printing compute node when the environment starts

     Waiting for input...
     Reading input from standard input

     Current dimensions of program PWSCF are:
     Max number of different atomic species (ntypx) = 10
     Max number of k-points (npk) =  40000
     Max angular momentum in pseudopotentials (lmaxx) =  4

     R & G space division:  proc/nbgrp/npool/nimage =       7
     Subspace diagonalization in iterative solution of the eigenvalue problem:
     a serial algorithm will be used


     Parallelization info
     --------------------
     sticks:   dense  smooth     PW     G-vecs:    dense   smooth      PW
     Min          26      26      8                 1676     1676     330
     Max          27      27     10                 1681     1681     342
     Sum         187     187     61                11745    11745    2349

     Using Slab Decomposition



     bravais-lattice index     =            4
     lattice parameter (alat)  =       4.6561  a.u.
     unit-cell volume          =     532.1899 (a.u.)^3
     number of atoms/cell      =            2
     number of atomic types    =            1
     number of electrons       =         8.00
     number of Kohn-Sham states=            8
     kinetic-energy cutoff     =      30.0000  Ry
     charge density cutoff     =     120.0000  Ry
     scf convergence threshold =      1.0E-08
     mixing beta               =       0.7000
     number of iterations used =            8  plain     mixing
     Exchange-correlation= PBE
                           (   1   4   3   4   0   0   0)

     celldm(1)=   4.656107  celldm(2)=   0.000000  celldm(3)=   6.087896
     celldm(4)=   0.000000  celldm(5)=   0.000000  celldm(6)=   0.000000

     crystal axes: (cart. coord. in units of alat)
               a(1) = (   1.000000   0.000000   0.000000 )  
               a(2) = (  -0.500000   0.866025   0.000000 )  
               a(3) = (   0.000000   0.000000   6.087896 )  

     reciprocal axes: (cart. coord. in units 2 pi/alat)
               b(1) = (  1.000000  0.577350 -0.000000 )  
               b(2) = (  0.000000  1.154701  0.000000 )  
               b(3) = (  0.000000 -0.000000  0.164260 )  


     PseudoPot. # 1 for C  read from file:
     /run/media/rfa/SATA/Skripsi/DFT/dft-graphene/pseudo/C.pbe-n-rrkjus_psl.0.1.UPF
     MD5 check sum: 96a6a315177d77e6c95bf6fd3870f9e3
     Pseudo is Ultrasoft + core correction, Zval =  4.0
     Generated using &quot;atomic&quot; code by A. Dal Corso  v.6.3MaX
     Using radial grid of 1073 points,  4 beta functions with: 
                l(1) =   0
                l(2) =   0
                l(3) =   1
                l(4) =   1
     Q(r) pseudized with 0 coefficients 


     atomic species   valence    mass     pseudopotential
     C                 4.00    12.01070     C ( 1.00)

     24 Sym. Ops., with inversion, found



   Cartesian axes

     site n.     atom                  positions (alat units)
         1        C      tau(   1) = (   0.0000000   0.5773503   3.0439478  )
         2        C      tau(   2) = (   0.5000000   0.2886751   3.0439478  )

     number of k points=    19  Marzari-Vanderbilt smearing, width (Ry)=  0.0200
                       cart. coord. in units 2pi/alat
        k(    1) = (   0.0000000   0.0000000   0.0000000), wk =   0.0138889
        k(    2) = (   0.0000000   0.0962250   0.0000000), wk =   0.0833333
        k(    3) = (   0.0000000   0.1924501   0.0000000), wk =   0.0833333
        k(    4) = (   0.0000000   0.2886751   0.0000000), wk =   0.0833333
        k(    5) = (   0.0000000   0.3849002   0.0000000), wk =   0.0833333
        k(    6) = (   0.0000000   0.4811252   0.0000000), wk =   0.0833333
        k(    7) = (   0.0000000  -0.5773503   0.0000000), wk =   0.0416667
        k(    8) = (   0.0833333   0.1443376   0.0000000), wk =   0.0833333
        k(    9) = (   0.0833333   0.2405626   0.0000000), wk =   0.1666667
        k(   10) = (   0.0833333   0.3367877   0.0000000), wk =   0.1666667
        k(   11) = (   0.0833333   0.4330127   0.0000000), wk =   0.1666667
        k(   12) = (   0.0833333   0.5292377   0.0000000), wk =   0.1666667
        k(   13) = (   0.1666667   0.2886751   0.0000000), wk =   0.0833333
        k(   14) = (   0.1666667   0.3849002   0.0000000), wk =   0.1666667
        k(   15) = (   0.1666667   0.4811252   0.0000000), wk =   0.1666667
        k(   16) = (   0.1666667   0.5773503   0.0000000), wk =   0.0833333
        k(   17) = (   0.2500000   0.4330127   0.0000000), wk =   0.0833333
        k(   18) = (   0.2500000   0.5292377   0.0000000), wk =   0.1666667
        k(   19) = (   0.3333333   0.5773503   0.0000000), wk =   0.0277778

     Dense  grid:    11745 G-vectors     FFT dimensions: (  18,  18, 100)

     Estimated max dynamical RAM per process >       3.13 MB

     Estimated total dynamical RAM >      21.93 MB

     Check: negative core charge=   -0.000014

     Initial potential from superposition of free atoms

     starting charge       7.9999, renormalised to       8.0000

     negative rho (up, down):  3.127E-03 0.000E+00
     Starting wfcs are    8 randomized atomic wfcs

     total cpu time spent up to now is        0.5 secs

     per-process dynamical memory:     8.2 Mb

     Self-consistent Calculation

     iteration #  1     ecut=    30.00 Ry     beta= 0.70
     Davidson diagonalization with overlap
     ethr =  1.00E-02,  avg # of iterations =  9.9

     negative rho (up, down):  1.705E-04 0.000E+00

     total cpu time spent up to now is        0.8 secs

     total energy              =     -23.87280655 Ry
     estimated scf accuracy    <       0.12350716 Ry

     iteration #  2     ecut=    30.00 Ry     beta= 0.70
     Davidson diagonalization with overlap
     ethr =  1.54E-03,  avg # of iterations =  2.9

     negative rho (up, down):  4.382E-04 0.000E+00

     total cpu time spent up to now is        0.9 secs

     total energy              =     -23.89283733 Ry
     estimated scf accuracy    <       0.00858162 Ry

     iteration #  3     ecut=    30.00 Ry     beta= 0.70
     Davidson diagonalization with overlap
     c_bands:  3 eigenvalues not converged
     c_bands:  1 eigenvalues not converged
     ethr =  1.07E-04,  avg # of iterations = 13.5

     negative rho (up, down):  5.374E-04 0.000E+00

     total cpu time spent up to now is        1.1 secs

     total energy              =     -23.89897663 Ry
     estimated scf accuracy    <       0.00071276 Ry

     iteration #  4     ecut=    30.00 Ry     beta= 0.70
     Davidson diagonalization with overlap
     c_bands:  1 eigenvalues not converged
     c_bands:  1 eigenvalues not converged
     c_bands:  1 eigenvalues not converged
     c_bands:  2 eigenvalues not converged
     ethr =  8.91E-06,  avg # of iterations = 12.4

     negative rho (up, down):  6.412E-04 0.000E+00

     total cpu time spent up to now is        1.4 secs

     total energy              =     -23.89868837 Ry
     estimated scf accuracy    <       0.00222680 Ry

     iteration #  5     ecut=    30.00 Ry     beta= 0.70
     Davidson diagonalization with overlap
     c_bands:  2 eigenvalues not converged
     ethr =  8.91E-06,  avg # of iterations =  5.6

     negative rho (up, down):  6.553E-04 0.000E+00

     total cpu time spent up to now is        1.5 secs

     total energy              =     -23.89893431 Ry
     estimated scf accuracy    <       0.00003641 Ry

     iteration #  6     ecut=    30.00 Ry     beta= 0.70
     Davidson diagonalization with overlap
     c_bands:  1 eigenvalues not converged
     c_bands:  1 eigenvalues not converged
     c_bands:  1 eigenvalues not converged
     ethr =  4.55E-07,  avg # of iterations =  9.6

     negative rho (up, down):  6.510E-04 0.000E+00

     total cpu time spent up to now is        1.7 secs

     total energy              =     -23.89897845 Ry
     estimated scf accuracy    <       0.00000773 Ry

     iteration #  7     ecut=    30.00 Ry     beta= 0.70
     Davidson diagonalization with overlap
     c_bands:  1 eigenvalues not converged
     ethr =  9.66E-08,  avg # of iterations =  2.9

     negative rho (up, down):  6.507E-04 0.000E+00

     total cpu time spent up to now is        1.8 secs

     total energy              =     -23.89897886 Ry
     estimated scf accuracy    <       0.00000166 Ry

     iteration #  8     ecut=    30.00 Ry     beta= 0.70
     Davidson diagonalization with overlap
     ethr =  2.08E-08,  avg # of iterations =  3.2

     negative rho (up, down):  6.505E-04 0.000E+00

     total cpu time spent up to now is        1.9 secs

     total energy              =     -23.89897898 Ry
     estimated scf accuracy    <       0.00000051 Ry

     iteration #  9     ecut=    30.00 Ry     beta= 0.70
     Davidson diagonalization with overlap
     ethr =  6.40E-09,  avg # of iterations =  2.7

     negative rho (up, down):  6.496E-04 0.000E+00

     total cpu time spent up to now is        2.0 secs

     total energy              =     -23.89897902 Ry
     estimated scf accuracy    <       0.00000017 Ry

     iteration # 10     ecut=    30.00 Ry     beta= 0.70
     Davidson diagonalization with overlap
     ethr =  2.13E-09,  avg # of iterations =  3.1

     negative rho (up, down):  6.496E-04 0.000E+00

     total cpu time spent up to now is        2.1 secs

     End of self-consistent calculation

          k = 0.0000 0.0000 0.0000 (  1435 PWs)   bands (ev):

   -21.2661  -9.3497  -4.7599  -4.7599   1.3391   2.1266   2.3653   4.3719

          k = 0.0000 0.0962 0.0000 (  1419 PWs)   bands (ev):

   -21.1020  -9.1533  -5.4068  -5.0980   1.5641   2.3529   2.5914   4.5952

          k = 0.0000 0.1925 0.0000 (  1451 PWs)   bands (ev):

   -20.6116  -8.5692  -7.0645  -5.8974   2.2388   3.0305   3.2706   5.2622

          k = 0.0000 0.2887 0.0000 (  1473 PWs)   bands (ev):

   -19.8010  -9.1704  -7.6175  -6.7841   3.3614   4.1484   4.4005   5.5581

          k = 0.0000 0.3849 0.0000 (  1477 PWs)   bands (ev):

   -18.6817 -11.3764  -7.5213  -6.3470   3.2174   4.9237   5.7553   5.9155

          k = 0.0000 0.4811 0.0000 (  1483 PWs)   bands (ev):

   -17.2846 -13.4783  -7.9975  -4.9196   1.0742   5.7585   6.9468   7.7633

          k = 0.0000-0.5774 0.0000 (  1488 PWs)   bands (ev):

   -16.0182 -14.9884  -8.1612  -4.0737  -0.0253   5.6800   9.2918   9.4167

          k = 0.0833 0.1443 0.0000 (  1444 PWs)   bands (ev):

   -20.7748  -8.7630  -6.4598  -5.7796   2.0141   2.8049   3.0441   5.0417

          k = 0.0833 0.2406 0.0000 (  1470 PWs)   bands (ev):

   -20.1243  -8.1747  -7.9947  -6.7867   2.9133   3.7062   3.9494   5.9192

          k = 0.0833 0.3368 0.0000 (  1485 PWs)   bands (ev):

   -19.1591 -10.2528  -7.6812  -6.8763   4.2258   4.2584   5.0812   5.3052

          k = 0.0833 0.4330 0.0000 (  1487 PWs)   bands (ev):

   -17.8981 -12.3772  -8.3171  -5.4936   2.0251   6.0319   6.5946   6.8570

          k = 0.0833 0.5292 0.0000 (  1493 PWs)   bands (ev):

   -16.4168 -14.3212  -8.6478  -4.1799   0.2492   6.4189   8.2618   9.0497

          k = 0.1667 0.2887 0.0000 (  1472 PWs)   bands (ev):

   -19.3194  -9.5070  -8.1530  -7.0539   4.0357   4.6892   4.8277   5.0811

          k = 0.1667 0.3849 0.0000 (  1483 PWs)   bands (ev):

   -18.2108 -11.2371  -9.2142  -5.7982   2.7383   5.5995   6.3813   6.6619

          k = 0.1667 0.4811 0.0000 (  1489 PWs)   bands (ev):

   -16.8338 -13.1497  -9.7927  -4.3686   0.8185   7.5838   8.3069   8.3202

          k = 0.1667 0.5774 0.0000 (  1496 PWs)   bands (ev):

   -15.5966 -14.5885  -9.9788  -3.4748  -0.2534   8.2291   9.8599   9.8726

          k = 0.2500 0.4330 0.0000 (  1494 PWs)   bands (ev):

   -16.9819 -12.2726 -10.6995  -4.4550   1.1164   7.3684   8.0297   8.4630

          k = 0.2500 0.5292 0.0000 (  1491 PWs)   bands (ev):

   -15.5578 -13.6949 -11.4090  -3.0669  -0.4055   9.1399   9.5012  10.4785

          k = 0.3333 0.5774 0.0000 (  1482 PWs)   bands (ev):

   -14.3369 -14.3369 -12.3066  -1.7058  -1.7058   8.8950  11.1554  11.1554

     the Fermi energy is    -1.6679 ev

!    total energy              =     -23.89897907 Ry
     estimated scf accuracy    <          3.8E-09 Ry
     smearing contrib. (-TS)   =      -0.00018232 Ry
     internal energy E=F+TS    =     -23.89879674 Ry

     The total energy is F=E-TS. E is the sum of the following terms:
     one-electron contribution =    -157.37854716 Ry
     hartree contribution      =      80.15006282 Ry
     xc contribution           =      -8.29995948 Ry
     ewald contribution        =      61.62964708 Ry

     convergence has been achieved in  10 iterations

     negative rho (up, down):  6.496E-04 0.000E+00

     Forces acting on atoms (cartesian axes, Ry/au):

     atom    1 type  1   force =     0.00000000   -0.00000000    0.00000000
     atom    2 type  1   force =     0.00000000    0.00000000    0.00000000

     Total force =     0.000000     Total SCF correction =     0.000000


     Computing stress (Cartesian axis) and pressure


     negative rho (up, down):  6.496E-04 0.000E+00
          total   stress  (Ry/bohr**3)                   (kbar)     P=      -21.53
  -0.00014259   0.00000000   0.00000000          -20.98        0.00        0.00
   0.00000000  -0.00014259  -0.00000000            0.00      -20.98       -0.00
  -0.00000000   0.00000000  -0.00015384           -0.00        0.00      -22.63


     Writing all to output data dir /run/media/rfa/SATA/Skripsi/DFT/dft-graphene/tmp/gr-1L.save/ :
     XML data file, charge density, pseudopotentials, collected wavefunctions

     init_run     :      0.27s CPU      0.47s WALL (       1 calls)
     electrons    :      2.65s CPU      1.56s WALL (       1 calls)
     forces       :      0.01s CPU      0.01s WALL (       1 calls)
     stress       :      0.03s CPU      0.03s WALL (       1 calls)

     Called by init_run:
     wfcinit      :      0.06s CPU      0.03s WALL (       1 calls)
     potinit      :      0.00s CPU      0.01s WALL (       1 calls)
     hinit0       :      0.19s CPU      0.42s WALL (       1 calls)

     Called by electrons:
     c_bands      :      2.41s CPU      1.35s WALL (      10 calls)
     sum_band     :      0.20s CPU      0.15s WALL (      10 calls)
     v_of_rho     :      0.02s CPU      0.03s WALL (      11 calls)
     newd         :      0.01s CPU      0.02s WALL (      11 calls)
     mix_rho      :      0.01s CPU      0.01s WALL (      10 calls)

     Called by c_bands:
     init_us_2    :      0.03s CPU      0.02s WALL (     437 calls)
     cegterg      :      2.31s CPU      1.28s WALL (     190 calls)

     Called by *egterg:
     cdiaghg      :      0.28s CPU      0.15s WALL (    1440 calls)
     h_psi        :      1.80s CPU      0.99s WALL (    1459 calls)
     s_psi        :      0.02s CPU      0.01s WALL (    1459 calls)
     g_psi        :      0.02s CPU      0.01s WALL (    1250 calls)

     Called by h_psi:
     h_psi:calbec :      0.06s CPU      0.03s WALL (    1459 calls)
     vloc_psi     :      1.68s CPU      0.92s WALL (    1459 calls)
     add_vuspsi   :      0.03s CPU      0.01s WALL (    1459 calls)

     General routines
     calbec       :      0.07s CPU      0.04s WALL (    1972 calls)
     fft          :      0.19s CPU      0.41s WALL (     146 calls)
     ffts         :      0.00s CPU      0.00s WALL (      10 calls)
     fftw         :      1.63s CPU      0.91s WALL (   13664 calls)

     Parallel routines

     PWSCF        :      3.03s CPU      2.25s WALL


   This run was terminated on:  23:37: 9  21Apr2025            

=------------------------------------------------------------------------------=
   JOB DONE.
=------------------------------------------------------------------------------=
