
     Program PWSCF v.7.4.1 starts on 16Apr2025 at 15: 7:17 

     This program is part of the open-source Quantum ESPRESSO suite
     for quantum simulation of materials; please cite
         "P. Giannozzi et al., J. Phys.:Condens. Matter 21 395502 (2009);
         "P. Giannozzi et al., J. Phys.:Condens. Matter 29 465901 (2017);
         "P. Giannozzi et al., J. Chem. Phys. 152 154105 (2020);
          URL http://www.quantum-espresso.org", 
     in publications or presentations arising from this work. More details at
     http://www.quantum-espresso.org/quote

     Parallel version (MPI), running on     7 processors

     MPI processes distributed on     1 nodes
     15162 MiB available memory on the printing compute node when the environment starts

     Waiting for input...
     Reading input from standard input

     Current dimensions of program PWSCF are:
     Max number of different atomic species (ntypx) = 10
     Max number of k-points (npk) =  40000
     Max angular momentum in pseudopotentials (lmaxx) =  4

     R & G space division:  proc/nbgrp/npool/nimage =       7
     Subspace diagonalization in iterative solution of the eigenvalue problem:
     a serial algorithm will be used


     Parallelization info
     --------------------
     sticks:   dense  smooth     PW     G-vecs:    dense   smooth      PW
     Min          37      37     12                 3088     3088     566
     Max          38      38     13                 3095     3095     589
     Sum         265     265     85                21637    21637    3993

     Using Slab Decomposition



     bravais-lattice index     =            4
     lattice parameter (alat)  =       4.6561  a.u.
     unit-cell volume          =     532.1899 (a.u.)^3
     number of atoms/cell      =            2
     number of atomic types    =            1
     number of electrons       =         8.00
     number of Kohn-Sham states=            8
     kinetic-energy cutoff     =      45.0000  Ry
     charge density cutoff     =     180.0000  Ry
     scf convergence threshold =      1.0E-08
     mixing beta               =       0.7000
     number of iterations used =            8  plain     mixing
     Exchange-correlation= PBE
                           (   1   4   3   4   0   0   0)

     celldm(1)=   4.656107  celldm(2)=   0.000000  celldm(3)=   6.087896
     celldm(4)=   0.000000  celldm(5)=   0.000000  celldm(6)=   0.000000

     crystal axes: (cart. coord. in units of alat)
               a(1) = (   1.000000   0.000000   0.000000 )  
               a(2) = (  -0.500000   0.866025   0.000000 )  
               a(3) = (   0.000000   0.000000   6.087896 )  

     reciprocal axes: (cart. coord. in units 2 pi/alat)
               b(1) = (  1.000000  0.577350 -0.000000 )  
               b(2) = (  0.000000  1.154701  0.000000 )  
               b(3) = (  0.000000 -0.000000  0.164260 )  


     PseudoPot. # 1 for C  read from file:
     /home/rfa/Skripsi/DFT/dft-graphene/pseudo/C.pbe-n-rrkjus_psl.0.1.UPF
     MD5 check sum: 96a6a315177d77e6c95bf6fd3870f9e3
     Pseudo is Ultrasoft + core correction, Zval =  4.0
     Generated using &quot;atomic&quot; code by A. Dal Corso  v.6.3MaX
     Using radial grid of 1073 points,  4 beta functions with: 
                l(1) =   0
                l(2) =   0
                l(3) =   1
                l(4) =   1
     Q(r) pseudized with 0 coefficients 


     atomic species   valence    mass     pseudopotential
     C                 4.00    12.01070     C ( 1.00)

     24 Sym. Ops., with inversion, found



   Cartesian axes

     site n.     atom                  positions (alat units)
         1        C      tau(   1) = (   0.0000000   0.5773503   3.0439478  )
         2        C      tau(   2) = (   0.5000000   0.2886751   3.0439478  )

     number of k points=    19  Marzari-Vanderbilt smearing, width (Ry)=  0.0200
                       cart. coord. in units 2pi/alat
        k(    1) = (   0.0000000   0.0000000   0.0000000), wk =   0.0138889
        k(    2) = (   0.0000000   0.0962250   0.0000000), wk =   0.0833333
        k(    3) = (   0.0000000   0.1924501   0.0000000), wk =   0.0833333
        k(    4) = (   0.0000000   0.2886751   0.0000000), wk =   0.0833333
        k(    5) = (   0.0000000   0.3849002   0.0000000), wk =   0.0833333
        k(    6) = (   0.0000000   0.4811252   0.0000000), wk =   0.0833333
        k(    7) = (   0.0000000  -0.5773503   0.0000000), wk =   0.0416667
        k(    8) = (   0.0833333   0.1443376   0.0000000), wk =   0.0833333
        k(    9) = (   0.0833333   0.2405626   0.0000000), wk =   0.1666667
        k(   10) = (   0.0833333   0.3367877   0.0000000), wk =   0.1666667
        k(   11) = (   0.0833333   0.4330127   0.0000000), wk =   0.1666667
        k(   12) = (   0.0833333   0.5292377   0.0000000), wk =   0.1666667
        k(   13) = (   0.1666667   0.2886751   0.0000000), wk =   0.0833333
        k(   14) = (   0.1666667   0.3849002   0.0000000), wk =   0.1666667
        k(   15) = (   0.1666667   0.4811252   0.0000000), wk =   0.1666667
        k(   16) = (   0.1666667   0.5773503   0.0000000), wk =   0.0833333
        k(   17) = (   0.2500000   0.4330127   0.0000000), wk =   0.0833333
        k(   18) = (   0.2500000   0.5292377   0.0000000), wk =   0.1666667
        k(   19) = (   0.3333333   0.5773503   0.0000000), wk =   0.0277778

     Dense  grid:    21637 G-vectors     FFT dimensions: (  20,  20, 125)

     Estimated max dynamical RAM per process >       5.49 MB

     Estimated total dynamical RAM >      38.43 MB

     Check: negative core charge=   -0.000010

     Initial potential from superposition of free atoms

     starting charge       7.9999, renormalised to       8.0000

     negative rho (up, down):  2.102E-04 0.000E+00
     Starting wfcs are    8 randomized atomic wfcs

     total cpu time spent up to now is        0.4 secs

     per-process dynamical memory:     9.2 Mb

     Self-consistent Calculation

     iteration #  1     ecut=    45.00 Ry     beta= 0.70
     Davidson diagonalization with overlap
     ethr =  1.00E-02,  avg # of iterations =  8.3

     negative rho (up, down):  1.052E-05 0.000E+00

     total cpu time spent up to now is        0.6 secs

     total energy              =     -23.84497228 Ry
     estimated scf accuracy    <       0.09326642 Ry

     iteration #  2     ecut=    45.00 Ry     beta= 0.70
     Davidson diagonalization with overlap
     ethr =  1.17E-03,  avg # of iterations =  5.4

     negative rho (up, down):  2.961E-04 0.000E+00

     total cpu time spent up to now is        0.7 secs

     total energy              =     -23.89719264 Ry
     estimated scf accuracy    <       0.02133772 Ry

     iteration #  3     ecut=    45.00 Ry     beta= 0.70
     Davidson diagonalization with overlap
     c_bands:  1 eigenvalues not converged
     c_bands:  1 eigenvalues not converged
     c_bands:  1 eigenvalues not converged
     c_bands:  1 eigenvalues not converged
     ethr =  2.67E-04,  avg # of iterations = 15.4

     negative rho (up, down):  1.499E-04 0.000E+00

     total cpu time spent up to now is        1.0 secs

     total energy              =     -23.90774209 Ry
     estimated scf accuracy    <       0.01457391 Ry

     iteration #  4     ecut=    45.00 Ry     beta= 0.70
     Davidson diagonalization with overlap
     ethr =  1.82E-04,  avg # of iterations =  2.8

     negative rho (up, down):  2.908E-04 0.000E+00

     total cpu time spent up to now is        1.1 secs

     total energy              =     -23.90742929 Ry
     estimated scf accuracy    <       0.00238776 Ry

     iteration #  5     ecut=    45.00 Ry     beta= 0.70
     Davidson diagonalization with overlap
     ethr =  2.98E-05,  avg # of iterations =  8.4

     negative rho (up, down):  2.183E-04 0.000E+00

     total cpu time spent up to now is        1.3 secs

     total energy              =     -23.90894400 Ry
     estimated scf accuracy    <       0.00149398 Ry

     iteration #  6     ecut=    45.00 Ry     beta= 0.70
     Davidson diagonalization with overlap
     ethr =  1.87E-05,  avg # of iterations =  2.4

     negative rho (up, down):  2.141E-04 0.000E+00

     total cpu time spent up to now is        1.4 secs

     total energy              =     -23.90902910 Ry
     estimated scf accuracy    <       0.00013677 Ry

     iteration #  7     ecut=    45.00 Ry     beta= 0.70
     Davidson diagonalization with overlap
     c_bands:  1 eigenvalues not converged
     c_bands:  1 eigenvalues not converged
     c_bands:  1 eigenvalues not converged
     c_bands:  1 eigenvalues not converged
     c_bands:  1 eigenvalues not converged
     c_bands:  1 eigenvalues not converged
     c_bands:  1 eigenvalues not converged
     ethr =  1.71E-06,  avg # of iterations = 14.5

     negative rho (up, down):  2.194E-04 0.000E+00

     total cpu time spent up to now is        1.7 secs

     total energy              =     -23.90916359 Ry
     estimated scf accuracy    <       0.00029876 Ry

     iteration #  8     ecut=    45.00 Ry     beta= 0.70
     Davidson diagonalization with overlap
     c_bands:  1 eigenvalues not converged
     ethr =  1.71E-06,  avg # of iterations =  5.0

     negative rho (up, down):  2.319E-04 0.000E+00

     total cpu time spent up to now is        1.8 secs

     total energy              =     -23.90918755 Ry
     estimated scf accuracy    <       0.00001117 Ry

     iteration #  9     ecut=    45.00 Ry     beta= 0.70
     Davidson diagonalization with overlap
     ethr =  1.40E-07,  avg # of iterations =  6.2

     negative rho (up, down):  2.243E-04 0.000E+00

     total cpu time spent up to now is        2.0 secs

     total energy              =     -23.90921405 Ry
     estimated scf accuracy    <       0.00004205 Ry

     iteration # 10     ecut=    45.00 Ry     beta= 0.70
     Davidson diagonalization with overlap
     ethr =  1.40E-07,  avg # of iterations =  1.4

     negative rho (up, down):  2.182E-04 0.000E+00

     total cpu time spent up to now is        2.1 secs

     total energy              =     -23.90921129 Ry
     estimated scf accuracy    <       0.00001314 Ry

     iteration # 11     ecut=    45.00 Ry     beta= 0.70
     Davidson diagonalization with overlap
     ethr =  1.40E-07,  avg # of iterations =  2.1

     negative rho (up, down):  2.235E-04 0.000E+00

     total cpu time spent up to now is        2.2 secs

     total energy              =     -23.90921033 Ry
     estimated scf accuracy    <       0.00000583 Ry

     iteration # 12     ecut=    45.00 Ry     beta= 0.70
     Davidson diagonalization with overlap
     ethr =  7.29E-08,  avg # of iterations =  2.1

     negative rho (up, down):  2.231E-04 0.000E+00

     total cpu time spent up to now is        2.3 secs

     total energy              =     -23.90921134 Ry
     estimated scf accuracy    <       0.00000067 Ry

     iteration # 13     ecut=    45.00 Ry     beta= 0.70
     Davidson diagonalization with overlap
     ethr =  8.39E-09,  avg # of iterations =  4.2

     negative rho (up, down):  2.247E-04 0.000E+00

     total cpu time spent up to now is        2.4 secs

     total energy              =     -23.90921227 Ry
     estimated scf accuracy    <       0.00000002 Ry

     iteration # 14     ecut=    45.00 Ry     beta= 0.70
     Davidson diagonalization with overlap
     ethr =  1.96E-10,  avg # of iterations =  5.9

     negative rho (up, down):  2.240E-04 0.000E+00

     total cpu time spent up to now is        2.6 secs

     total energy              =     -23.90921229 Ry
     estimated scf accuracy    <       0.00000015 Ry

     iteration # 15     ecut=    45.00 Ry     beta= 0.70
     Davidson diagonalization with overlap
     ethr =  1.96E-10,  avg # of iterations =  4.2

     negative rho (up, down):  2.234E-04 0.000E+00

     total cpu time spent up to now is        2.7 secs

     total energy              =     -23.90921230 Ry
     estimated scf accuracy    <       0.00000001 Ry

     iteration # 16     ecut=    45.00 Ry     beta= 0.70
     Davidson diagonalization with overlap
     ethr =  1.72E-10,  avg # of iterations =  2.2

     negative rho (up, down):  2.235E-04 0.000E+00

     total cpu time spent up to now is        2.8 secs

     End of self-consistent calculation

          k = 0.0000 0.0000 0.0000 (  2629 PWs)   bands (ev):

   -21.2502  -9.3506  -4.7899  -4.7899   1.2660   2.0300   2.2539   4.2624

          k = 0.0000 0.0962 0.0000 (  2663 PWs)   bands (ev):

   -21.0862  -9.1544  -5.4388  -5.1283   1.4914   2.2565   2.4799   4.4858

          k = 0.0000 0.1925 0.0000 (  2691 PWs)   bands (ev):

   -20.5962  -8.5709  -7.0734  -5.9209   2.1675   2.9349   3.1577   5.1526

          k = 0.0000 0.2887 0.0000 (  2687 PWs)   bands (ev):

   -19.7857  -9.1692  -7.6194  -6.8009   3.2926   4.0547   4.2866   5.5280

          k = 0.0000 0.3849 0.0000 (  2706 PWs)   bands (ev):

   -18.6670 -11.3711  -7.5346  -6.3502   3.1991   4.8595   5.6667   5.8324

          k = 0.0000 0.4811 0.0000 (  2702 PWs)   bands (ev):

   -17.2709 -13.4708  -8.0077  -4.9263   1.0624   5.7627   6.8861   7.6728

          k = 0.0000-0.5774 0.0000 (  2716 PWs)   bands (ev):

   -16.0044 -14.9798  -8.1701  -4.0809  -0.0365   5.6851   9.2486   9.3548

          k = 0.0833 0.1443 0.0000 (  2687 PWs)   bands (ev):

   -20.7592  -8.7644  -6.4703  -5.8057   1.9423   2.7090   2.9319   4.9311

          k = 0.0833 0.2406 0.0000 (  2698 PWs)   bands (ev):

   -20.1090  -8.1775  -7.9957  -6.8036   2.8434   3.6115   3.8361   5.8106

          k = 0.0833 0.3368 0.0000 (  2705 PWs)   bands (ev):

   -19.1442 -10.2487  -7.6898  -6.8789   4.1916   4.2082   4.9888   5.1899

          k = 0.0833 0.4330 0.0000 (  2710 PWs)   bands (ev):

   -17.8838 -12.3706  -8.3247  -5.4982   2.0106   5.9721   6.5882   6.7691

          k = 0.0833 0.5292 0.0000 (  2713 PWs)   bands (ev):

   -16.4033 -14.3126  -8.6531  -4.1878   0.2402   6.4213   8.2056   8.9674

          k = 0.1667 0.2887 0.0000 (  2703 PWs)   bands (ev):

   -19.3044  -9.5055  -8.1654  -7.0578   3.9682   4.6706   4.7347   4.9662

          k = 0.1667 0.3849 0.0000 (  2709 PWs)   bands (ev):

   -18.1966 -11.2316  -9.2212  -5.8038   2.7207   5.5359   6.2921   6.5447

          k = 0.1667 0.4811 0.0000 (  2736 PWs)   bands (ev):

   -16.8204 -13.1424  -9.7965  -4.3759   0.8064   7.5275   8.2293   8.3090

          k = 0.1667 0.5774 0.0000 (  2725 PWs)   bands (ev):

   -15.5835 -14.5797  -9.9812  -3.4823  -0.2628   8.2261   9.8306   9.8355

          k = 0.2500 0.4330 0.0000 (  2739 PWs)   bands (ev):

   -16.9683 -12.2648 -10.7052  -4.4600   1.1047   7.3105   7.9566   8.3418

          k = 0.2500 0.5292 0.0000 (  2751 PWs)   bands (ev):

   -15.5452 -13.6868 -11.4122  -3.0731  -0.4169   9.1257   9.4554  10.4501

          k = 0.3333 0.5774 0.0000 (  2763 PWs)   bands (ev):

   -14.3271 -14.3271 -12.3111  -1.7160  -1.7160   8.8931  11.1365  11.1373

     the Fermi energy is    -1.6781 ev

!    total energy              =     -23.90921230 Ry
     estimated scf accuracy    <          2.3E-09 Ry
     smearing contrib. (-TS)   =      -0.00018232 Ry
     internal energy E=F+TS    =     -23.90902998 Ry

     The total energy is F=E-TS. E is the sum of the following terms:
     one-electron contribution =    -157.39436615 Ry
     hartree contribution      =      80.15917078 Ry
     xc contribution           =      -8.30348142 Ry
     ewald contribution        =      61.62964681 Ry

     convergence has been achieved in  16 iterations

     negative rho (up, down):  2.235E-04 0.000E+00

     Forces acting on atoms (cartesian axes, Ry/au):

     atom    1 type  1   force =     0.00000000    0.00000000    0.00000000
     atom    2 type  1   force =     0.00000000    0.00000000    0.00000000

     Total force =     0.000000     Total SCF correction =     0.000000


     Computing stress (Cartesian axis) and pressure


     negative rho (up, down):  2.235E-04 0.000E+00
          total   stress  (Ry/bohr**3)                   (kbar)     P=        0.13
   0.00000194  -0.00000000  -0.00000000            0.29       -0.00       -0.00
  -0.00000000   0.00000194   0.00000000           -0.00        0.29        0.00
  -0.00000000   0.00000000  -0.00000127           -0.00        0.00       -0.19


     Writing all to output data dir /home/rfa/Skripsi/DFT/dft-graphene/tmp/gr-1L.save/ :
     XML data file, charge density, pseudopotentials, collected wavefunctions

     init_run     :      0.21s CPU      0.32s WALL (       1 calls)
     electrons    :      4.09s CPU      2.44s WALL (       1 calls)
     forces       :      0.01s CPU      0.01s WALL (       1 calls)
     stress       :      0.05s CPU      0.05s WALL (       1 calls)

     Called by init_run:
     wfcinit      :      0.05s CPU      0.03s WALL (       1 calls)
     potinit      :      0.01s CPU      0.01s WALL (       1 calls)
     hinit0       :      0.14s CPU      0.26s WALL (       1 calls)

     Called by electrons:
     c_bands      :      3.60s CPU      2.01s WALL (      16 calls)
     sum_band     :      0.36s CPU      0.28s WALL (      16 calls)
     v_of_rho     :      0.05s CPU      0.06s WALL (      17 calls)
     newd         :      0.05s CPU      0.06s WALL (      17 calls)
     mix_rho      :      0.02s CPU      0.02s WALL (      16 calls)

     Called by c_bands:
     init_us_2    :      0.08s CPU      0.05s WALL (     665 calls)
     cegterg      :      3.37s CPU      1.85s WALL (     304 calls)

     Called by *egterg:
     cdiaghg      :      0.40s CPU      0.21s WALL (    2023 calls)
     h_psi        :      2.46s CPU      1.35s WALL (    2042 calls)
     s_psi        :      0.05s CPU      0.03s WALL (    2042 calls)
     g_psi        :      0.05s CPU      0.02s WALL (    1719 calls)

     Called by h_psi:
     h_psi:calbec :      0.13s CPU      0.07s WALL (    2042 calls)
     vloc_psi     :      2.21s CPU      1.21s WALL (    2042 calls)
     add_vuspsi   :      0.06s CPU      0.03s WALL (    2042 calls)

     General routines
     calbec       :      0.14s CPU      0.08s WALL (    2669 calls)
     fft          :      0.14s CPU      0.27s WALL (     212 calls)
     ffts         :      0.00s CPU      0.00s WALL (      16 calls)
     fftw         :      2.03s CPU      1.13s WALL (   20496 calls)

     Parallel routines

     PWSCF        :      4.43s CPU      3.02s WALL


   This run was terminated on:  15: 7:20  16Apr2025            

=------------------------------------------------------------------------------=
   JOB DONE.
=------------------------------------------------------------------------------=
