
     Program PWSCF v.7.4.1 starts on 21Apr2025 at 23:36:59 

     This program is part of the open-source Quantum ESPRESSO suite
     for quantum simulation of materials; please cite
         "P. Giannozzi et al., J. Phys.:Condens. Matter 21 395502 (2009);
         "P. Giannozzi et al., J. Phys.:Condens. Matter 29 465901 (2017);
         "P. Giannozzi et al., J. Chem. Phys. 152 154105 (2020);
          URL http://www.quantum-espresso.org", 
     in publications or presentations arising from this work. More details at
     http://www.quantum-espresso.org/quote

     Parallel version (MPI), running on     7 processors

     MPI processes distributed on     1 nodes
     13826 MiB available memory on the printing compute node when the environment starts

     Waiting for input...
     Reading input from standard input

     Current dimensions of program PWSCF are:
     Max number of different atomic species (ntypx) = 10
     Max number of k-points (npk) =  40000
     Max angular momentum in pseudopotentials (lmaxx) =  4

     R & G space division:  proc/nbgrp/npool/nimage =       7
     Subspace diagonalization in iterative solution of the eigenvalue problem:
     a serial algorithm will be used


     Parallelization info
     --------------------
     sticks:   dense  smooth     PW     G-vecs:    dense   smooth      PW
     Min          18      18      6                 1042     1042     210
     Max          19      19      7                 1062     1062     224
     Sum         127     127     43                 7339     7339    1521

     Using Slab Decomposition



     bravais-lattice index     =            4
     lattice parameter (alat)  =       4.6561  a.u.
     unit-cell volume          =     532.1899 (a.u.)^3
     number of atoms/cell      =            2
     number of atomic types    =            1
     number of electrons       =         8.00
     number of Kohn-Sham states=            8
     kinetic-energy cutoff     =      22.0000  Ry
     charge density cutoff     =      88.0000  Ry
     scf convergence threshold =      1.0E-08
     mixing beta               =       0.7000
     number of iterations used =            8  plain     mixing
     Exchange-correlation= PBE
                           (   1   4   3   4   0   0   0)

     celldm(1)=   4.656107  celldm(2)=   0.000000  celldm(3)=   6.087896
     celldm(4)=   0.000000  celldm(5)=   0.000000  celldm(6)=   0.000000

     crystal axes: (cart. coord. in units of alat)
               a(1) = (   1.000000   0.000000   0.000000 )  
               a(2) = (  -0.500000   0.866025   0.000000 )  
               a(3) = (   0.000000   0.000000   6.087896 )  

     reciprocal axes: (cart. coord. in units 2 pi/alat)
               b(1) = (  1.000000  0.577350 -0.000000 )  
               b(2) = (  0.000000  1.154701  0.000000 )  
               b(3) = (  0.000000 -0.000000  0.164260 )  


     PseudoPot. # 1 for C  read from file:
     /run/media/rfa/SATA/Skripsi/DFT/dft-graphene/pseudo/C.pbe-n-rrkjus_psl.0.1.UPF
     MD5 check sum: 96a6a315177d77e6c95bf6fd3870f9e3
     Pseudo is Ultrasoft + core correction, Zval =  4.0
     Generated using &quot;atomic&quot; code by A. Dal Corso  v.6.3MaX
     Using radial grid of 1073 points,  4 beta functions with: 
                l(1) =   0
                l(2) =   0
                l(3) =   1
                l(4) =   1
     Q(r) pseudized with 0 coefficients 


     atomic species   valence    mass     pseudopotential
     C                 4.00    12.01070     C ( 1.00)

     24 Sym. Ops., with inversion, found



   Cartesian axes

     site n.     atom                  positions (alat units)
         1        C      tau(   1) = (   0.0000000   0.5773503   3.0439478  )
         2        C      tau(   2) = (   0.5000000   0.2886751   3.0439478  )

     number of k points=    19  Marzari-Vanderbilt smearing, width (Ry)=  0.0200
                       cart. coord. in units 2pi/alat
        k(    1) = (   0.0000000   0.0000000   0.0000000), wk =   0.0138889
        k(    2) = (   0.0000000   0.0962250   0.0000000), wk =   0.0833333
        k(    3) = (   0.0000000   0.1924501   0.0000000), wk =   0.0833333
        k(    4) = (   0.0000000   0.2886751   0.0000000), wk =   0.0833333
        k(    5) = (   0.0000000   0.3849002   0.0000000), wk =   0.0833333
        k(    6) = (   0.0000000   0.4811252   0.0000000), wk =   0.0833333
        k(    7) = (   0.0000000  -0.5773503   0.0000000), wk =   0.0416667
        k(    8) = (   0.0833333   0.1443376   0.0000000), wk =   0.0833333
        k(    9) = (   0.0833333   0.2405626   0.0000000), wk =   0.1666667
        k(   10) = (   0.0833333   0.3367877   0.0000000), wk =   0.1666667
        k(   11) = (   0.0833333   0.4330127   0.0000000), wk =   0.1666667
        k(   12) = (   0.0833333   0.5292377   0.0000000), wk =   0.1666667
        k(   13) = (   0.1666667   0.2886751   0.0000000), wk =   0.0833333
        k(   14) = (   0.1666667   0.3849002   0.0000000), wk =   0.1666667
        k(   15) = (   0.1666667   0.4811252   0.0000000), wk =   0.1666667
        k(   16) = (   0.1666667   0.5773503   0.0000000), wk =   0.0833333
        k(   17) = (   0.2500000   0.4330127   0.0000000), wk =   0.0833333
        k(   18) = (   0.2500000   0.5292377   0.0000000), wk =   0.1666667
        k(   19) = (   0.3333333   0.5773503   0.0000000), wk =   0.0277778

     Dense  grid:     7339 G-vectors     FFT dimensions: (  15,  15,  90)

     Estimated max dynamical RAM per process >       2.00 MB

     Estimated total dynamical RAM >      14.01 MB

     Check: negative core charge=   -0.000157

     Initial potential from superposition of free atoms

     starting charge       7.9999, renormalised to       8.0000

     negative rho (up, down):  8.083E-03 0.000E+00
     Starting wfcs are    8 randomized atomic wfcs

     total cpu time spent up to now is        0.4 secs

     per-process dynamical memory:     7.8 Mb

     Self-consistent Calculation

     iteration #  1     ecut=    22.00 Ry     beta= 0.70
     Davidson diagonalization with overlap
     ethr =  1.00E-02,  avg # of iterations =  8.2

     negative rho (up, down):  2.441E-03 0.000E+00

     total cpu time spent up to now is        0.5 secs

     total energy              =     -23.73457707 Ry
     estimated scf accuracy    <       0.13933617 Ry

     iteration #  2     ecut=    22.00 Ry     beta= 0.70
     Davidson diagonalization with overlap
     ethr =  1.74E-03,  avg # of iterations =  4.6

     negative rho (up, down):  1.272E-03 0.000E+00

     total cpu time spent up to now is        0.5 secs

     total energy              =     -23.74590538 Ry
     estimated scf accuracy    <       0.00330292 Ry

     iteration #  3     ecut=    22.00 Ry     beta= 0.70
     Davidson diagonalization with overlap
     c_bands:  1 eigenvalues not converged
     ethr =  4.13E-05,  avg # of iterations = 13.1

     negative rho (up, down):  1.363E-03 0.000E+00

     total cpu time spent up to now is        0.7 secs

     total energy              =     -23.74746790 Ry
     estimated scf accuracy    <       0.00044702 Ry

     iteration #  4     ecut=    22.00 Ry     beta= 0.70
     Davidson diagonalization with overlap
     ethr =  5.59E-06,  avg # of iterations =  4.1

     negative rho (up, down):  1.320E-03 0.000E+00

     total cpu time spent up to now is        0.8 secs

     total energy              =     -23.74749562 Ry
     estimated scf accuracy    <       0.00035139 Ry

     iteration #  5     ecut=    22.00 Ry     beta= 0.70
     Davidson diagonalization with overlap
     ethr =  4.39E-06,  avg # of iterations =  2.8

     negative rho (up, down):  1.315E-03 0.000E+00

     total cpu time spent up to now is        0.8 secs

     total energy              =     -23.74754024 Ry
     estimated scf accuracy    <       0.00000245 Ry

     iteration #  6     ecut=    22.00 Ry     beta= 0.70
     Davidson diagonalization with overlap
     ethr =  3.06E-08,  avg # of iterations =  3.7

     negative rho (up, down):  1.321E-03 0.000E+00

     total cpu time spent up to now is        0.9 secs

     total energy              =     -23.74754242 Ry
     estimated scf accuracy    <       0.00000132 Ry

     iteration #  7     ecut=    22.00 Ry     beta= 0.70
     Davidson diagonalization with overlap
     ethr =  1.65E-08,  avg # of iterations =  1.9

     negative rho (up, down):  1.324E-03 0.000E+00

     total cpu time spent up to now is        0.9 secs

     total energy              =     -23.74754252 Ry
     estimated scf accuracy    <       0.00000006 Ry

     iteration #  8     ecut=    22.00 Ry     beta= 0.70
     Davidson diagonalization with overlap
     ethr =  7.66E-10,  avg # of iterations =  3.0

     negative rho (up, down):  1.325E-03 0.000E+00

     total cpu time spent up to now is        1.0 secs

     End of self-consistent calculation

          k = 0.0000 0.0000 0.0000 (   943 PWs)   bands (ev):

   -21.7404  -9.3920  -4.9177  -4.9177   0.2556   0.9178   1.2910   3.2868

          k = 0.0000 0.0962 0.0000 (   946 PWs)   bands (ev):

   -21.5726  -9.1858  -5.5594  -5.2196   0.4833   1.1456   1.5173   3.5115

          k = 0.0000 0.1925 0.0000 (   952 PWs)   bands (ev):

   -21.0725  -8.5976  -7.2112  -6.0223   1.1663   1.8274   2.1960   4.1820

          k = 0.0000 0.2887 0.0000 (   960 PWs)   bands (ev):

   -20.2459  -9.3809  -7.6675  -6.9009   2.3042   2.9577   3.3265   5.2503

          k = 0.0000 0.3849 0.0000 (   934 PWs)   bands (ev):

   -19.0925 -11.5905  -7.5942  -6.3450   3.4185   3.8961   4.5854   4.9078

          k = 0.0000 0.4811 0.0000 (   922 PWs)   bands (ev):

   -17.6474 -13.7092  -8.0769  -4.8765   1.1836   5.4403   5.9403   6.6026

          k = 0.0000-0.5774 0.0000 (   906 PWs)   bands (ev):

   -16.3789 -15.1533  -8.2075  -3.9829   0.0512   5.3325   8.4235   8.4252

          k = 0.0833 0.1443 0.0000 (   939 PWs)   bands (ev):

   -21.2387  -8.7664  -6.5748  -5.8937   0.9387   1.6015   1.9699   3.9621

          k = 0.0833 0.2406 0.0000 (   948 PWs)   bands (ev):

   -20.5750  -8.3469  -8.0142  -6.9151   1.8493   2.5082   2.8747   4.8487

          k = 0.0833 0.3368 0.0000 (   946 PWs)   bands (ev):

   -19.5876 -10.4597  -7.7930  -6.8900   3.2140   3.8458   4.2309   4.5132

          k = 0.0833 0.4330 0.0000 (   919 PWs)   bands (ev):

   -18.2827 -12.5709  -8.4038  -5.4417   2.2027   5.0315   5.6929   6.0345

          k = 0.0833 0.5292 0.0000 (   915 PWs)   bands (ev):

   -16.7616 -14.5457  -8.7355  -4.1081   0.3311   6.1262   7.2959   7.9347

          k = 0.1667 0.2887 0.0000 (   937 PWs)   bands (ev):

   -19.7517  -9.6846  -8.3074  -7.0559   2.9868   3.6403   4.0053   4.9518

          k = 0.1667 0.3849 0.0000 (   922 PWs)   bands (ev):

   -18.6100 -11.4182  -9.3511  -5.7741   2.9948   4.5772   5.2195   5.5856

          k = 0.1667 0.4811 0.0000 (   910 PWs)   bands (ev):

   -17.1831 -13.3641  -9.9338  -4.2959   0.9963   6.6163   7.2191   7.6101

          k = 0.1667 0.5774 0.0000 (   914 PWs)   bands (ev):

   -15.9569 -14.8123 -10.1282  -3.3737  -0.1295   8.0668   9.0736   9.0853

          k = 0.2500 0.4330 0.0000 (   905 PWs)   bands (ev):

   -17.3413 -12.4720 -10.8535  -4.3828   1.3521   6.3889   6.9637   7.3842

          k = 0.2500 0.5292 0.0000 (   904 PWs)   bands (ev):

   -15.8972 -13.9497 -11.5726  -2.9520  -0.2389   8.6220   8.6271   9.5994

          k = 0.3333 0.5774 0.0000 (   900 PWs)   bands (ev):

   -14.6414 -14.6414 -12.4601  -1.5932  -1.5932   8.5238  10.8475  10.8476

     the Fermi energy is    -1.5553 ev

!    total energy              =     -23.74754254 Ry
     estimated scf accuracy    <          4.4E-09 Ry
     smearing contrib. (-TS)   =      -0.00018232 Ry
     internal energy E=F+TS    =     -23.74736021 Ry

     The total energy is F=E-TS. E is the sum of the following terms:
     one-electron contribution =    -157.00520206 Ry
     hartree contribution      =      79.89219943 Ry
     xc contribution           =      -8.26400469 Ry
     ewald contribution        =      61.62964711 Ry

     convergence has been achieved in   8 iterations

     negative rho (up, down):  1.325E-03 0.000E+00

     Forces acting on atoms (cartesian axes, Ry/au):

     atom    1 type  1   force =    -0.00000000    0.00000000    0.00000000
     atom    2 type  1   force =     0.00000000   -0.00000000    0.00000000

     Total force =     0.000000     Total SCF correction =     0.000000


     Computing stress (Cartesian axis) and pressure


     negative rho (up, down):  1.325E-03 0.000E+00
          total   stress  (Ry/bohr**3)                   (kbar)     P=     -200.05
  -0.00120542  -0.00000000   0.00000000         -177.32       -0.00        0.00
  -0.00000000  -0.00120542  -0.00000000           -0.00     -177.32       -0.00
   0.00000000  -0.00000000  -0.00166892            0.00       -0.00     -245.51


     Writing all to output data dir /run/media/rfa/SATA/Skripsi/DFT/dft-graphene/tmp/gr-1L.save/ :
     XML data file, charge density, pseudopotentials, collected wavefunctions

     init_run     :      0.16s CPU      0.28s WALL (       1 calls)
     electrons    :      1.06s CPU      0.66s WALL (       1 calls)
     forces       :      0.01s CPU      0.01s WALL (       1 calls)
     stress       :      0.02s CPU      0.02s WALL (       1 calls)

     Called by init_run:
     wfcinit      :      0.03s CPU      0.02s WALL (       1 calls)
     potinit      :      0.00s CPU      0.00s WALL (       1 calls)
     hinit0       :      0.12s CPU      0.24s WALL (       1 calls)

     Called by electrons:
     c_bands      :      0.93s CPU      0.56s WALL (       8 calls)
     sum_band     :      0.11s CPU      0.07s WALL (       8 calls)
     v_of_rho     :      0.01s CPU      0.01s WALL (       9 calls)
     newd         :      0.01s CPU      0.01s WALL (       9 calls)
     mix_rho      :      0.00s CPU      0.00s WALL (       8 calls)

     Called by c_bands:
     init_us_2    :      0.02s CPU      0.01s WALL (     361 calls)
     cegterg      :      0.87s CPU      0.51s WALL (     152 calls)

     Called by *egterg:
     cdiaghg      :      0.17s CPU      0.10s WALL (     940 calls)
     h_psi        :      0.58s CPU      0.35s WALL (     959 calls)
     s_psi        :      0.01s CPU      0.01s WALL (     959 calls)
     g_psi        :      0.01s CPU      0.01s WALL (     788 calls)

     Called by h_psi:
     h_psi:calbec :      0.03s CPU      0.02s WALL (     959 calls)
     vloc_psi     :      0.52s CPU      0.31s WALL (     959 calls)
     add_vuspsi   :      0.01s CPU      0.01s WALL (     959 calls)

     General routines
     calbec       :      0.04s CPU      0.02s WALL (    1434 calls)
     fft          :      0.11s CPU      0.23s WALL (     124 calls)
     ffts         :      0.00s CPU      0.00s WALL (       8 calls)
     fftw         :      0.49s CPU      0.29s WALL (    9628 calls)

     Parallel routines

     PWSCF        :      1.32s CPU      1.11s WALL


   This run was terminated on:  23:37: 0  21Apr2025            

=------------------------------------------------------------------------------=
   JOB DONE.
=------------------------------------------------------------------------------=
