
     Program PWSCF v.7.4.1 starts on 16Apr2025 at 15: 4:37 

     This program is part of the open-source Quantum ESPRESSO suite
     for quantum simulation of materials; please cite
         "P. Giannozzi et al., J. Phys.:Condens. Matter 21 395502 (2009);
         "P. Giannozzi et al., J. Phys.:Condens. Matter 29 465901 (2017);
         "P. Giannozzi et al., J. Chem. Phys. 152 154105 (2020);
          URL http://www.quantum-espresso.org", 
     in publications or presentations arising from this work. More details at
     http://www.quantum-espresso.org/quote

     Parallel version (MPI), running on     7 processors

     MPI processes distributed on     1 nodes
     15547 MiB available memory on the printing compute node when the environment starts

     Waiting for input...
     Reading input from standard input

     Current dimensions of program PWSCF are:
     Max number of different atomic species (ntypx) = 10
     Max number of k-points (npk) =  40000
     Max angular momentum in pseudopotentials (lmaxx) =  4

     R & G space division:  proc/nbgrp/npool/nimage =       7
     Subspace diagonalization in iterative solution of the eigenvalue problem:
     a serial algorithm will be used


     Parallelization info
     --------------------
     sticks:   dense  smooth     PW     G-vecs:    dense   smooth      PW
     Min          51      51     15                 4783     4783     815
     Max          52      52     16                 4800     4800     838
     Sum         361     361    109                33523    33523    5791

     Using Slab Decomposition



     bravais-lattice index     =            4
     lattice parameter (alat)  =       4.6561  a.u.
     unit-cell volume          =     532.1899 (a.u.)^3
     number of atoms/cell      =            2
     number of atomic types    =            1
     number of electrons       =         8.00
     number of Kohn-Sham states=            8
     kinetic-energy cutoff     =      60.0000  Ry
     charge density cutoff     =     240.0000  Ry
     scf convergence threshold =      1.0E-08
     mixing beta               =       0.7000
     number of iterations used =            8  plain     mixing
     Exchange-correlation= PBE
                           (   1   4   3   4   0   0   0)

     celldm(1)=   4.656107  celldm(2)=   0.000000  celldm(3)=   6.087896
     celldm(4)=   0.000000  celldm(5)=   0.000000  celldm(6)=   0.000000

     crystal axes: (cart. coord. in units of alat)
               a(1) = (   1.000000   0.000000   0.000000 )  
               a(2) = (  -0.500000   0.866025   0.000000 )  
               a(3) = (   0.000000   0.000000   6.087896 )  

     reciprocal axes: (cart. coord. in units 2 pi/alat)
               b(1) = (  1.000000  0.577350 -0.000000 )  
               b(2) = (  0.000000  1.154701  0.000000 )  
               b(3) = (  0.000000 -0.000000  0.164260 )  


     PseudoPot. # 1 for C  read from file:
     /home/rfa/Skripsi/DFT/dft-graphene/pseudo/C.pbe-n-rrkjus_psl.0.1.UPF
     MD5 check sum: 96a6a315177d77e6c95bf6fd3870f9e3
     Pseudo is Ultrasoft + core correction, Zval =  4.0
     Generated using &quot;atomic&quot; code by A. Dal Corso  v.6.3MaX
     Using radial grid of 1073 points,  4 beta functions with: 
                l(1) =   0
                l(2) =   0
                l(3) =   1
                l(4) =   1
     Q(r) pseudized with 0 coefficients 


     atomic species   valence    mass     pseudopotential
     C                 4.00    12.01070     C ( 1.00)

     24 Sym. Ops., with inversion, found



   Cartesian axes

     site n.     atom                  positions (alat units)
         1        C      tau(   1) = (   0.0000000   0.5773503   3.0439478  )
         2        C      tau(   2) = (   0.5000000   0.2886751   3.0439478  )

     number of k points=    19  Marzari-Vanderbilt smearing, width (Ry)=  0.0200
                       cart. coord. in units 2pi/alat
        k(    1) = (   0.0000000   0.0000000   0.0000000), wk =   0.0138889
        k(    2) = (   0.0000000   0.0962250   0.0000000), wk =   0.0833333
        k(    3) = (   0.0000000   0.1924501   0.0000000), wk =   0.0833333
        k(    4) = (   0.0000000   0.2886751   0.0000000), wk =   0.0833333
        k(    5) = (   0.0000000   0.3849002   0.0000000), wk =   0.0833333
        k(    6) = (   0.0000000   0.4811252   0.0000000), wk =   0.0833333
        k(    7) = (   0.0000000  -0.5773503   0.0000000), wk =   0.0416667
        k(    8) = (   0.0833333   0.1443376   0.0000000), wk =   0.0833333
        k(    9) = (   0.0833333   0.2405626   0.0000000), wk =   0.1666667
        k(   10) = (   0.0833333   0.3367877   0.0000000), wk =   0.1666667
        k(   11) = (   0.0833333   0.4330127   0.0000000), wk =   0.1666667
        k(   12) = (   0.0833333   0.5292377   0.0000000), wk =   0.1666667
        k(   13) = (   0.1666667   0.2886751   0.0000000), wk =   0.0833333
        k(   14) = (   0.1666667   0.3849002   0.0000000), wk =   0.1666667
        k(   15) = (   0.1666667   0.4811252   0.0000000), wk =   0.1666667
        k(   16) = (   0.1666667   0.5773503   0.0000000), wk =   0.0833333
        k(   17) = (   0.2500000   0.4330127   0.0000000), wk =   0.0833333
        k(   18) = (   0.2500000   0.5292377   0.0000000), wk =   0.1666667
        k(   19) = (   0.3333333   0.5773503   0.0000000), wk =   0.0277778

     Dense  grid:    33523 G-vectors     FFT dimensions: (  24,  24, 144)

     Estimated max dynamical RAM per process >       8.42 MB

     Estimated total dynamical RAM >      58.97 MB

     Check: negative core charge=   -0.000003

     Initial potential from superposition of free atoms

     starting charge       7.9999, renormalised to       8.0000

     negative rho (up, down):  9.023E-05 0.000E+00
     Starting wfcs are    8 randomized atomic wfcs

     total cpu time spent up to now is        0.8 secs

     per-process dynamical memory:    11.0 Mb

     Self-consistent Calculation

     iteration #  1     ecut=    60.00 Ry     beta= 0.70
     Davidson diagonalization with overlap
     ethr =  1.00E-02,  avg # of iterations =  7.2

     Threshold (ethr) on eigenvalues was too large:
     Diagonalizing with lowered threshold

     Davidson diagonalization with overlap
     ethr =  8.56E-04,  avg # of iterations =  6.3

     negative rho (up, down):  2.132E-05 0.000E+00

     total cpu time spent up to now is        1.5 secs

     total energy              =     -23.88059879 Ry
     estimated scf accuracy    <       0.19451613 Ry

     iteration #  2     ecut=    60.00 Ry     beta= 0.70
     Davidson diagonalization with overlap
     ethr =  2.43E-03,  avg # of iterations =  2.9

     negative rho (up, down):  3.473E-05 0.000E+00

     total cpu time spent up to now is        1.7 secs

     total energy              =     -23.89165439 Ry
     estimated scf accuracy    <       0.00594085 Ry

     iteration #  3     ecut=    60.00 Ry     beta= 0.70
     Davidson diagonalization with overlap
     c_bands:  1 eigenvalues not converged
     c_bands:  2 eigenvalues not converged
     c_bands:  4 eigenvalues not converged
     c_bands:  1 eigenvalues not converged
     c_bands:  1 eigenvalues not converged
     c_bands:  1 eigenvalues not converged
     c_bands:  1 eigenvalues not converged
     c_bands:  1 eigenvalues not converged
     c_bands:  1 eigenvalues not converged
     c_bands:  2 eigenvalues not converged
     c_bands:  1 eigenvalues not converged
     c_bands:  2 eigenvalues not converged
     ethr =  7.43E-05,  avg # of iterations = 18.1

     negative rho (up, down):  3.090E-05 0.000E+00

     total cpu time spent up to now is        2.6 secs

     total energy              =     -23.91494782 Ry
     estimated scf accuracy    <       0.00823479 Ry

     iteration #  4     ecut=    60.00 Ry     beta= 0.70
     Davidson diagonalization with overlap
     ethr =  7.43E-05,  avg # of iterations =  3.3

     negative rho (up, down):  5.374E-05 0.000E+00

     total cpu time spent up to now is        2.8 secs

     total energy              =     -23.91494721 Ry
     estimated scf accuracy    <       0.01215668 Ry

     iteration #  5     ecut=    60.00 Ry     beta= 0.70
     Davidson diagonalization with overlap
     ethr =  7.43E-05,  avg # of iterations =  1.2

     negative rho (up, down):  1.102E-04 0.000E+00

     total cpu time spent up to now is        3.0 secs

     total energy              =     -23.90910837 Ry
     estimated scf accuracy    <       0.01085988 Ry

     iteration #  6     ecut=    60.00 Ry     beta= 0.70
     Davidson diagonalization with overlap
     ethr =  7.43E-05,  avg # of iterations =  1.9

     negative rho (up, down):  1.089E-04 0.000E+00

     total cpu time spent up to now is        3.3 secs

     total energy              =     -23.90987851 Ry
     estimated scf accuracy    <       0.00163761 Ry

     iteration #  7     ecut=    60.00 Ry     beta= 0.70
     Davidson diagonalization with overlap
     ethr =  2.05E-05,  avg # of iterations =  3.8

     negative rho (up, down):  1.095E-04 0.000E+00

     total cpu time spent up to now is        3.5 secs

     total energy              =     -23.91019874 Ry
     estimated scf accuracy    <       0.00175648 Ry

     iteration #  8     ecut=    60.00 Ry     beta= 0.70
     Davidson diagonalization with overlap
     ethr =  2.05E-05,  avg # of iterations =  1.4

     negative rho (up, down):  1.096E-04 0.000E+00

     total cpu time spent up to now is        3.7 secs

     total energy              =     -23.91032036 Ry
     estimated scf accuracy    <       0.00184434 Ry

     iteration #  9     ecut=    60.00 Ry     beta= 0.70
     Davidson diagonalization with overlap
     ethr =  2.05E-05,  avg # of iterations =  1.2

     negative rho (up, down):  1.136E-04 0.000E+00

     total cpu time spent up to now is        3.9 secs

     total energy              =     -23.90978278 Ry
     estimated scf accuracy    <       0.00185033 Ry

     iteration # 10     ecut=    60.00 Ry     beta= 0.70
     Davidson diagonalization with overlap
     ethr =  2.05E-05,  avg # of iterations =  2.3

     negative rho (up, down):  1.140E-04 0.000E+00

     total cpu time spent up to now is        4.2 secs

     total energy              =     -23.90964807 Ry
     estimated scf accuracy    <       0.00077154 Ry

     iteration # 11     ecut=    60.00 Ry     beta= 0.70
     Davidson diagonalization with overlap
     c_bands:  1 eigenvalues not converged
     ethr =  9.64E-06,  avg # of iterations =  4.7

     negative rho (up, down):  1.194E-04 0.000E+00

     total cpu time spent up to now is        4.5 secs

     total energy              =     -23.90982600 Ry
     estimated scf accuracy    <       0.00017668 Ry

     iteration # 12     ecut=    60.00 Ry     beta= 0.70
     Davidson diagonalization with overlap
     c_bands:  1 eigenvalues not converged
     c_bands:  1 eigenvalues not converged
     c_bands:  2 eigenvalues not converged
     ethr =  2.21E-06,  avg # of iterations = 10.1

     negative rho (up, down):  1.248E-04 0.000E+00

     total cpu time spent up to now is        4.9 secs

     total energy              =     -23.91039611 Ry
     estimated scf accuracy    <       0.00020506 Ry

     iteration # 13     ecut=    60.00 Ry     beta= 0.70
     Davidson diagonalization with overlap
     ethr =  2.21E-06,  avg # of iterations =  6.6

     negative rho (up, down):  1.249E-04 0.000E+00

     total cpu time spent up to now is        5.3 secs

     total energy              =     -23.91038866 Ry
     estimated scf accuracy    <       0.00114049 Ry

     iteration # 14     ecut=    60.00 Ry     beta= 0.70
     Davidson diagonalization with overlap
     ethr =  2.21E-06,  avg # of iterations =  1.7

     negative rho (up, down):  1.236E-04 0.000E+00

     total cpu time spent up to now is        5.5 secs

     total energy              =     -23.91055056 Ry
     estimated scf accuracy    <       0.00100134 Ry

     iteration # 15     ecut=    60.00 Ry     beta= 0.70
     Davidson diagonalization with overlap
     ethr =  2.21E-06,  avg # of iterations =  1.5

     negative rho (up, down):  1.326E-04 0.000E+00

     total cpu time spent up to now is        5.7 secs

     total energy              =     -23.90965363 Ry
     estimated scf accuracy    <       0.00130073 Ry

     iteration # 16     ecut=    60.00 Ry     beta= 0.70
     Davidson diagonalization with overlap
     ethr =  2.21E-06,  avg # of iterations =  7.8

     negative rho (up, down):  1.340E-04 0.000E+00

     total cpu time spent up to now is        6.2 secs

     total energy              =     -23.91033500 Ry
     estimated scf accuracy    <       0.00051383 Ry

     iteration # 17     ecut=    60.00 Ry     beta= 0.70
     Davidson diagonalization with overlap
     ethr =  2.21E-06,  avg # of iterations =  2.2

     negative rho (up, down):  1.282E-04 0.000E+00

     total cpu time spent up to now is        6.4 secs

     total energy              =     -23.90984540 Ry
     estimated scf accuracy    <       0.00089031 Ry

     iteration # 18     ecut=    60.00 Ry     beta= 0.70
     Davidson diagonalization with overlap
     ethr =  2.21E-06,  avg # of iterations =  2.4

     negative rho (up, down):  1.284E-04 0.000E+00

     total cpu time spent up to now is        6.7 secs

     total energy              =     -23.90986424 Ry
     estimated scf accuracy    <       0.00005188 Ry

     iteration # 19     ecut=    60.00 Ry     beta= 0.70
     Davidson diagonalization with overlap
     ethr =  6.48E-07,  avg # of iterations =  4.2

     negative rho (up, down):  1.280E-04 0.000E+00

     total cpu time spent up to now is        7.0 secs

     total energy              =     -23.90993142 Ry
     estimated scf accuracy    <       0.00001004 Ry

     iteration # 20     ecut=    60.00 Ry     beta= 0.70
     Davidson diagonalization with overlap
     ethr =  1.25E-07,  avg # of iterations =  3.3

     negative rho (up, down):  1.284E-04 0.000E+00

     total cpu time spent up to now is        7.2 secs

     total energy              =     -23.90992560 Ry
     estimated scf accuracy    <       0.00003622 Ry

     iteration # 21     ecut=    60.00 Ry     beta= 0.70
     Davidson diagonalization with overlap
     ethr =  1.25E-07,  avg # of iterations =  1.2

     negative rho (up, down):  1.283E-04 0.000E+00

     total cpu time spent up to now is        7.5 secs

     total energy              =     -23.90992156 Ry
     estimated scf accuracy    <       0.00001650 Ry

     iteration # 22     ecut=    60.00 Ry     beta= 0.70
     Davidson diagonalization with overlap
     ethr =  1.25E-07,  avg # of iterations =  1.2

     negative rho (up, down):  1.278E-04 0.000E+00

     total cpu time spent up to now is        7.7 secs

     total energy              =     -23.90991720 Ry
     estimated scf accuracy    <       0.00000824 Ry

     iteration # 23     ecut=    60.00 Ry     beta= 0.70
     Davidson diagonalization with overlap
     ethr =  1.03E-07,  avg # of iterations =  2.0

     negative rho (up, down):  1.270E-04 0.000E+00

     total cpu time spent up to now is        7.9 secs

     total energy              =     -23.90991863 Ry
     estimated scf accuracy    <       0.00000043 Ry

     iteration # 24     ecut=    60.00 Ry     beta= 0.70
     Davidson diagonalization with overlap
     ethr =  5.40E-09,  avg # of iterations =  4.2

     negative rho (up, down):  1.272E-04 0.000E+00

     total cpu time spent up to now is        8.2 secs

     total energy              =     -23.90991939 Ry
     estimated scf accuracy    <       0.00000021 Ry

     iteration # 25     ecut=    60.00 Ry     beta= 0.70
     Davidson diagonalization with overlap
     ethr =  2.63E-09,  avg # of iterations =  1.4

     negative rho (up, down):  1.272E-04 0.000E+00

     total cpu time spent up to now is        8.5 secs

     total energy              =     -23.90991934 Ry
     estimated scf accuracy    <       0.00000012 Ry

     iteration # 26     ecut=    60.00 Ry     beta= 0.70
     Davidson diagonalization with overlap
     ethr =  1.56E-09,  avg # of iterations =  2.1

     negative rho (up, down):  1.272E-04 0.000E+00

     total cpu time spent up to now is        8.7 secs

     End of self-consistent calculation

          k = 0.0000 0.0000 0.0000 (  4149 PWs)   bands (ev):

   -21.2464  -9.3489  -4.7876  -4.7876   1.4136   2.2345   2.4906   4.4653

          k = 0.0000 0.0962 0.0000 (  4170 PWs)   bands (ev):

   -21.0825  -9.1526  -5.4365  -5.1260   1.6380   2.4604   2.7171   4.6885

          k = 0.0000 0.1925 0.0000 (  4194 PWs)   bands (ev):

   -20.5925  -8.5692  -7.0709  -5.9185   2.3110   3.1370   3.3967   5.3560

          k = 0.0000 0.2887 0.0000 (  4186 PWs)   bands (ev):

   -19.7822  -9.1665  -7.6177  -6.7985   3.4307   4.2502   4.5285   5.5411

          k = 0.0000 0.3849 0.0000 (  4180 PWs)   bands (ev):

   -18.6636 -11.3681  -7.5321  -6.3485   3.2012   4.9874   5.9736   6.1645

          k = 0.0000 0.4811 0.0000 (  4172 PWs)   bands (ev):

   -17.2675 -13.4678  -8.0052  -4.9247   1.0640   5.7641   7.0072   7.8598

          k = 0.0000-0.5774 0.0000 (  4184 PWs)   bands (ev):

   -16.0008 -14.9769  -8.1676  -4.0793  -0.0349   5.6864   9.3374   9.4723

          k = 0.0833 0.1443 0.0000 (  4169 PWs)   bands (ev):

   -20.7556  -8.7627  -6.4678  -5.8033   2.0868   2.9119   3.1703   5.1342

          k = 0.0833 0.2406 0.0000 (  4180 PWs)   bands (ev):

   -20.1054  -8.1748  -7.9940  -6.8012   2.9839   3.8114   4.0768   6.0102

          k = 0.0833 0.3368 0.0000 (  4175 PWs)   bands (ev):

   -19.1408 -10.2458  -7.6874  -6.8772   4.2130   4.3253   5.1825   5.4345

          k = 0.0833 0.4330 0.0000 (  4187 PWs)   bands (ev):

   -17.8804 -12.3676  -8.3222  -5.4966   2.0122   6.0899   6.6057   6.9541

          k = 0.0833 0.5292 0.0000 (  4195 PWs)   bands (ev):

   -16.3999 -14.3096  -8.6506  -4.1862   0.2417   6.4228   8.3163   9.1348

          k = 0.1667 0.2887 0.0000 (  4170 PWs)   bands (ev):

   -19.3009  -9.5026  -8.1629  -7.0561   4.1035   4.6721   4.9302   5.2101

          k = 0.1667 0.3849 0.0000 (  4172 PWs)   bands (ev):

   -18.1932 -11.2286  -9.2186  -5.8021   2.7222   5.6628   6.4776   6.7935

          k = 0.1667 0.4811 0.0000 (  4170 PWs)   bands (ev):

   -16.8170 -13.1393  -9.7940  -4.3742   0.8080   7.6380   8.3252   8.3866

          k = 0.1667 0.5774 0.0000 (  4178 PWs)   bands (ev):

   -15.5800 -14.5768  -9.9786  -3.4807  -0.2612   8.2279   9.8782   9.9107

          k = 0.2500 0.4330 0.0000 (  4156 PWs)   bands (ev):

   -16.9649 -12.2616 -10.7027  -4.4584   1.1062   7.4252   8.1050   8.5978

          k = 0.2500 0.5292 0.0000 (  4161 PWs)   bands (ev):

   -15.5418 -13.6836 -11.4097  -3.0715  -0.4153   9.1537   9.5437  10.4825

          k = 0.3333 0.5774 0.0000 (  4152 PWs)   bands (ev):

   -14.3237 -14.3237 -12.3087  -1.7144  -1.7144   8.9021  11.1602  11.1603

     the Fermi energy is    -1.6765 ev

!    total energy              =     -23.90991936 Ry
     estimated scf accuracy    <          5.9E-09 Ry
     smearing contrib. (-TS)   =      -0.00018232 Ry
     internal energy E=F+TS    =     -23.90973704 Ry

     The total energy is F=E-TS. E is the sum of the following terms:
     one-electron contribution =    -157.39734675 Ry
     hartree contribution      =      80.16143791 Ry
     xc contribution           =      -8.30347531 Ry
     ewald contribution        =      61.62964711 Ry

     convergence has been achieved in  26 iterations

     negative rho (up, down):  1.272E-04 0.000E+00

     Forces acting on atoms (cartesian axes, Ry/au):

     atom    1 type  1   force =     0.00000000   -0.00000000    0.00000000
     atom    2 type  1   force =    -0.00000000    0.00000000    0.00000000

     Total force =     0.000000     Total SCF correction =     0.000000


     Computing stress (Cartesian axis) and pressure


     negative rho (up, down):  1.272E-04 0.000E+00
          total   stress  (Ry/bohr**3)                   (kbar)     P=       -0.11
  -0.00000032   0.00000000   0.00000000           -0.05        0.00        0.00
   0.00000000  -0.00000032  -0.00000000            0.00       -0.05       -0.00
  -0.00000000   0.00000000  -0.00000167           -0.00        0.00       -0.25


     Writing all to output data dir /home/rfa/Skripsi/DFT/dft-graphene/tmp/gr-1L.save/ :
     XML data file, charge density, pseudopotentials, collected wavefunctions

     init_run     :      0.50s CPU      0.74s WALL (       1 calls)
     electrons    :     14.24s CPU      7.90s WALL (       1 calls)
     forces       :      0.05s CPU      0.03s WALL (       1 calls)
     stress       :      0.14s CPU      0.09s WALL (       1 calls)

     Called by init_run:
     wfcinit      :      0.13s CPU      0.07s WALL (       1 calls)
     potinit      :      0.01s CPU      0.01s WALL (       1 calls)
     hinit0       :      0.34s CPU      0.63s WALL (       1 calls)

     Called by electrons:
     c_bands      :     11.61s CPU      6.32s WALL (      27 calls)
     sum_band     :      2.04s CPU      1.10s WALL (      27 calls)
     v_of_rho     :      0.19s CPU      0.19s WALL (      27 calls)
     newd         :      0.19s CPU      0.17s WALL (      27 calls)
     mix_rho      :      0.18s CPU      0.10s WALL (      27 calls)

     Called by c_bands:
     init_us_2    :      0.30s CPU      0.15s WALL (    1083 calls)
     cegterg      :     10.98s CPU      5.94s WALL (     513 calls)

     Called by *egterg:
     cdiaghg      :      0.56s CPU      0.30s WALL (    2514 calls)
     h_psi        :      9.12s CPU      4.94s WALL (    2552 calls)
     s_psi        :      0.12s CPU      0.06s WALL (    2552 calls)
     g_psi        :      0.09s CPU      0.05s WALL (    2020 calls)

     Called by h_psi:
     h_psi:calbec :      0.50s CPU      0.26s WALL (    2552 calls)
     vloc_psi     :      8.30s CPU      4.49s WALL (    2552 calls)
     add_vuspsi   :      0.21s CPU      0.11s WALL (    2552 calls)

     General routines
     calbec       :      0.58s CPU      0.31s WALL (    3388 calls)
     fft          :      0.42s CPU      0.70s WALL (     323 calls)
     ffts         :      0.01s CPU      0.01s WALL (      27 calls)
     fftw         :      8.39s CPU      4.53s WALL (   29736 calls)

     Parallel routines

     PWSCF        :     15.02s CPU      9.02s WALL


   This run was terminated on:  15: 4:46  16Apr2025            

=------------------------------------------------------------------------------=
   JOB DONE.
=------------------------------------------------------------------------------=
