
     Program PWSCF v.7.4.1 starts on 21Apr2025 at 23:38:15 

     This program is part of the open-source Quantum ESPRESSO suite
     for quantum simulation of materials; please cite
         "P. Giannozzi et al., J. Phys.:Condens. Matter 21 395502 (2009);
         "P. Giannozzi et al., J. Phys.:Condens. Matter 29 465901 (2017);
         "P. Giannozzi et al., J. Chem. Phys. 152 154105 (2020);
          URL http://www.quantum-espresso.org", 
     in publications or presentations arising from this work. More details at
     http://www.quantum-espresso.org/quote

     Parallel version (MPI), running on     7 processors

     MPI processes distributed on     1 nodes
     13804 MiB available memory on the printing compute node when the environment starts

     Waiting for input...
     Reading input from standard input

     Current dimensions of program PWSCF are:
     Max number of different atomic species (ntypx) = 10
     Max number of k-points (npk) =  40000
     Max angular momentum in pseudopotentials (lmaxx) =  4

     R & G space division:  proc/nbgrp/npool/nimage =       7
     Subspace diagonalization in iterative solution of the eigenvalue problem:
     a serial algorithm will be used


     Parallelization info
     --------------------
     sticks:   dense  smooth     PW     G-vecs:    dense   smooth      PW
     Min          62      62     19                 6632     6632    1108
     Max          63      63     21                 6655     6655    1119
     Sum         439     439    139                46531    46531    7785

     Using Slab Decomposition



     bravais-lattice index     =            4
     lattice parameter (alat)  =       4.6561  a.u.
     unit-cell volume          =     532.1899 (a.u.)^3
     number of atoms/cell      =            2
     number of atomic types    =            1
     number of electrons       =         8.00
     number of Kohn-Sham states=            8
     kinetic-energy cutoff     =      75.0000  Ry
     charge density cutoff     =     300.0000  Ry
     scf convergence threshold =      1.0E-08
     mixing beta               =       0.7000
     number of iterations used =            8  plain     mixing
     Exchange-correlation= PBE
                           (   1   4   3   4   0   0   0)

     celldm(1)=   4.656107  celldm(2)=   0.000000  celldm(3)=   6.087896
     celldm(4)=   0.000000  celldm(5)=   0.000000  celldm(6)=   0.000000

     crystal axes: (cart. coord. in units of alat)
               a(1) = (   1.000000   0.000000   0.000000 )  
               a(2) = (  -0.500000   0.866025   0.000000 )  
               a(3) = (   0.000000   0.000000   6.087896 )  

     reciprocal axes: (cart. coord. in units 2 pi/alat)
               b(1) = (  1.000000  0.577350 -0.000000 )  
               b(2) = (  0.000000  1.154701  0.000000 )  
               b(3) = (  0.000000 -0.000000  0.164260 )  


     PseudoPot. # 1 for C  read from file:
     /run/media/rfa/SATA/Skripsi/DFT/dft-graphene/pseudo/C.pbe-n-rrkjus_psl.0.1.UPF
     MD5 check sum: 96a6a315177d77e6c95bf6fd3870f9e3
     Pseudo is Ultrasoft + core correction, Zval =  4.0
     Generated using &quot;atomic&quot; code by A. Dal Corso  v.6.3MaX
     Using radial grid of 1073 points,  4 beta functions with: 
                l(1) =   0
                l(2) =   0
                l(3) =   1
                l(4) =   1
     Q(r) pseudized with 0 coefficients 


     atomic species   valence    mass     pseudopotential
     C                 4.00    12.01070     C ( 1.00)

     24 Sym. Ops., with inversion, found



   Cartesian axes

     site n.     atom                  positions (alat units)
         1        C      tau(   1) = (   0.0000000   0.5773503   3.0439478  )
         2        C      tau(   2) = (   0.5000000   0.2886751   3.0439478  )

     number of k points=    19  Marzari-Vanderbilt smearing, width (Ry)=  0.0200
                       cart. coord. in units 2pi/alat
        k(    1) = (   0.0000000   0.0000000   0.0000000), wk =   0.0138889
        k(    2) = (   0.0000000   0.0962250   0.0000000), wk =   0.0833333
        k(    3) = (   0.0000000   0.1924501   0.0000000), wk =   0.0833333
        k(    4) = (   0.0000000   0.2886751   0.0000000), wk =   0.0833333
        k(    5) = (   0.0000000   0.3849002   0.0000000), wk =   0.0833333
        k(    6) = (   0.0000000   0.4811252   0.0000000), wk =   0.0833333
        k(    7) = (   0.0000000  -0.5773503   0.0000000), wk =   0.0416667
        k(    8) = (   0.0833333   0.1443376   0.0000000), wk =   0.0833333
        k(    9) = (   0.0833333   0.2405626   0.0000000), wk =   0.1666667
        k(   10) = (   0.0833333   0.3367877   0.0000000), wk =   0.1666667
        k(   11) = (   0.0833333   0.4330127   0.0000000), wk =   0.1666667
        k(   12) = (   0.0833333   0.5292377   0.0000000), wk =   0.1666667
        k(   13) = (   0.1666667   0.2886751   0.0000000), wk =   0.0833333
        k(   14) = (   0.1666667   0.3849002   0.0000000), wk =   0.1666667
        k(   15) = (   0.1666667   0.4811252   0.0000000), wk =   0.1666667
        k(   16) = (   0.1666667   0.5773503   0.0000000), wk =   0.0833333
        k(   17) = (   0.2500000   0.4330127   0.0000000), wk =   0.0833333
        k(   18) = (   0.2500000   0.5292377   0.0000000), wk =   0.1666667
        k(   19) = (   0.3333333   0.5773503   0.0000000), wk =   0.0277778

     Dense  grid:    46531 G-vectors     FFT dimensions: (  25,  25, 160)

     Estimated max dynamical RAM per process >      11.47 MB

     Estimated total dynamical RAM >      80.26 MB

     Check: negative core charge=   -0.000002

     Initial potential from superposition of free atoms

     starting charge       7.9999, renormalised to       8.0000

     negative rho (up, down):  5.575E-05 0.000E+00
     Starting wfcs are    8 randomized atomic wfcs

     total cpu time spent up to now is        0.7 secs

     per-process dynamical memory:    12.3 Mb

     Self-consistent Calculation

     iteration #  1     ecut=    75.00 Ry     beta= 0.70
     Davidson diagonalization with overlap
     ethr =  1.00E-02,  avg # of iterations =  7.5

     Threshold (ethr) on eigenvalues was too large:
     Diagonalizing with lowered threshold

     Davidson diagonalization with overlap
     ethr =  7.78E-04,  avg # of iterations =  6.4

     negative rho (up, down):  1.875E-06 0.000E+00

     total cpu time spent up to now is        1.6 secs

     total energy              =     -23.88185468 Ry
     estimated scf accuracy    <       0.19327776 Ry

     iteration #  2     ecut=    75.00 Ry     beta= 0.70
     Davidson diagonalization with overlap
     ethr =  2.42E-03,  avg # of iterations =  2.1

     total cpu time spent up to now is        1.8 secs

     total energy              =     -23.89212531 Ry
     estimated scf accuracy    <       0.00597086 Ry

     iteration #  3     ecut=    75.00 Ry     beta= 0.70
     Davidson diagonalization with overlap
     c_bands:  3 eigenvalues not converged
     c_bands:  1 eigenvalues not converged
     c_bands:  1 eigenvalues not converged
     c_bands:  3 eigenvalues not converged
     c_bands:  1 eigenvalues not converged
     c_bands:  1 eigenvalues not converged
     c_bands:  2 eigenvalues not converged
     c_bands:  1 eigenvalues not converged
     ethr =  7.46E-05,  avg # of iterations = 18.6

     total cpu time spent up to now is        3.0 secs

     total energy              =     -23.91444579 Ry
     estimated scf accuracy    <       0.00779131 Ry

     iteration #  4     ecut=    75.00 Ry     beta= 0.70
     Davidson diagonalization with overlap
     ethr =  7.46E-05,  avg # of iterations =  3.5

     total cpu time spent up to now is        3.3 secs

     total energy              =     -23.91939042 Ry
     estimated scf accuracy    <       0.01077810 Ry

     iteration #  5     ecut=    75.00 Ry     beta= 0.70
     Davidson diagonalization with overlap
     ethr =  7.46E-05,  avg # of iterations =  1.4

     negative rho (up, down):  6.926E-07 0.000E+00

     total cpu time spent up to now is        3.6 secs

     total energy              =     -23.91173654 Ry
     estimated scf accuracy    <       0.01855455 Ry

     iteration #  6     ecut=    75.00 Ry     beta= 0.70
     Davidson diagonalization with overlap
     ethr =  7.46E-05,  avg # of iterations =  1.8

     negative rho (up, down):  1.014E-06 0.000E+00

     total cpu time spent up to now is        3.8 secs

     total energy              =     -23.91121270 Ry
     estimated scf accuracy    <       0.00691649 Ry

     iteration #  7     ecut=    75.00 Ry     beta= 0.70
     Davidson diagonalization with overlap
     ethr =  7.46E-05,  avg # of iterations =  1.2

     negative rho (up, down):  8.708E-07 0.000E+00

     total cpu time spent up to now is        4.1 secs

     total energy              =     -23.91160690 Ry
     estimated scf accuracy    <       0.00418899 Ry

     iteration #  8     ecut=    75.00 Ry     beta= 0.70
     Davidson diagonalization with overlap
     ethr =  5.24E-05,  avg # of iterations =  1.5

     negative rho (up, down):  8.855E-07 0.000E+00

     total cpu time spent up to now is        4.3 secs

     total energy              =     -23.91159080 Ry
     estimated scf accuracy    <       0.00451449 Ry

     iteration #  9     ecut=    75.00 Ry     beta= 0.70
     Davidson diagonalization with overlap
     ethr =  5.24E-05,  avg # of iterations =  1.1

     negative rho (up, down):  8.817E-07 0.000E+00

     total cpu time spent up to now is        4.6 secs

     total energy              =     -23.91166399 Ry
     estimated scf accuracy    <       0.00412625 Ry

     iteration # 10     ecut=    75.00 Ry     beta= 0.70
     Davidson diagonalization with overlap
     ethr =  5.16E-05,  avg # of iterations =  1.2

     negative rho (up, down):  6.107E-07 0.000E+00

     total cpu time spent up to now is        4.8 secs

     total energy              =     -23.91178535 Ry
     estimated scf accuracy    <       0.00417856 Ry

     iteration # 11     ecut=    75.00 Ry     beta= 0.70
     Davidson diagonalization with overlap
     ethr =  5.16E-05,  avg # of iterations =  1.2

     negative rho (up, down):  1.943E-05 0.000E+00

     total cpu time spent up to now is        5.1 secs

     total energy              =     -23.91001112 Ry
     estimated scf accuracy    <       0.00421795 Ry

     iteration # 12     ecut=    75.00 Ry     beta= 0.70
     Davidson diagonalization with overlap
     ethr =  5.16E-05,  avg # of iterations =  1.3

     negative rho (up, down):  1.640E-05 0.000E+00

     total cpu time spent up to now is        5.3 secs

     total energy              =     -23.91003332 Ry
     estimated scf accuracy    <       0.00054786 Ry

     iteration # 13     ecut=    75.00 Ry     beta= 0.70
     Davidson diagonalization with overlap
     c_bands:  1 eigenvalues not converged
     c_bands:  1 eigenvalues not converged
     ethr =  6.85E-06,  avg # of iterations =  8.8

     negative rho (up, down):  1.578E-05 0.000E+00

     total cpu time spent up to now is        5.8 secs

     total energy              =     -23.91016729 Ry
     estimated scf accuracy    <       0.00015398 Ry

     iteration # 14     ecut=    75.00 Ry     beta= 0.70
     Davidson diagonalization with overlap
     c_bands:  1 eigenvalues not converged
     ethr =  1.92E-06,  avg # of iterations =  6.7

     negative rho (up, down):  1.900E-05 0.000E+00

     total cpu time spent up to now is        6.3 secs

     total energy              =     -23.91031665 Ry
     estimated scf accuracy    <       0.00004526 Ry

     iteration # 15     ecut=    75.00 Ry     beta= 0.70
     Davidson diagonalization with overlap
     ethr =  5.66E-07,  avg # of iterations =  1.9

     negative rho (up, down):  3.993E-05 0.000E+00

     total cpu time spent up to now is        6.6 secs

     total energy              =     -23.91141075 Ry
     estimated scf accuracy    <       0.00016837 Ry

     iteration # 16     ecut=    75.00 Ry     beta= 0.70
     Davidson diagonalization with overlap
     c_bands:  1 eigenvalues not converged
     c_bands:  1 eigenvalues not converged
     ethr =  5.66E-07,  avg # of iterations = 10.3

     negative rho (up, down):  3.899E-05 0.000E+00

     total cpu time spent up to now is        7.3 secs

     total energy              =     -23.91169605 Ry
     estimated scf accuracy    <       0.00319517 Ry

     iteration # 17     ecut=    75.00 Ry     beta= 0.70
     Davidson diagonalization with overlap
     ethr =  5.66E-07,  avg # of iterations =  3.7

     negative rho (up, down):  1.180E-05 0.000E+00

     total cpu time spent up to now is        7.6 secs

     total energy              =     -23.90948491 Ry
     estimated scf accuracy    <       0.00310930 Ry

     iteration # 18     ecut=    75.00 Ry     beta= 0.70
     Davidson diagonalization with overlap
     c_bands:  1 eigenvalues not converged
     c_bands:  1 eigenvalues not converged
     c_bands:  5 eigenvalues not converged
     ethr =  5.66E-07,  avg # of iterations = 13.4

     negative rho (up, down):  1.235E-05 0.000E+00

     total cpu time spent up to now is        8.6 secs

     total energy              =     -23.91031711 Ry
     estimated scf accuracy    <       0.00030946 Ry

     iteration # 19     ecut=    75.00 Ry     beta= 0.70
     Davidson diagonalization with overlap
     ethr =  5.66E-07,  avg # of iterations =  3.4

     negative rho (up, down):  1.321E-05 0.000E+00

     total cpu time spent up to now is        8.9 secs

     total energy              =     -23.91035856 Ry
     estimated scf accuracy    <       0.00019494 Ry

     iteration # 20     ecut=    75.00 Ry     beta= 0.70
     Davidson diagonalization with overlap
     ethr =  5.66E-07,  avg # of iterations =  1.4

     negative rho (up, down):  1.512E-05 0.000E+00

     total cpu time spent up to now is        9.2 secs

     total energy              =     -23.91039113 Ry
     estimated scf accuracy    <       0.00026280 Ry

     iteration # 21     ecut=    75.00 Ry     beta= 0.70
     Davidson diagonalization with overlap
     ethr =  5.66E-07,  avg # of iterations =  1.1

     negative rho (up, down):  1.157E-05 0.000E+00

     total cpu time spent up to now is        9.4 secs

     total energy              =     -23.91023126 Ry
     estimated scf accuracy    <       0.00033202 Ry

     iteration # 22     ecut=    75.00 Ry     beta= 0.70
     Davidson diagonalization with overlap
     ethr =  5.66E-07,  avg # of iterations =  2.8

     negative rho (up, down):  1.630E-05 0.000E+00

     total cpu time spent up to now is        9.7 secs

     total energy              =     -23.91026794 Ry
     estimated scf accuracy    <       0.00005626 Ry

     iteration # 23     ecut=    75.00 Ry     beta= 0.70
     Davidson diagonalization with overlap
     ethr =  5.66E-07,  avg # of iterations =  1.0

     negative rho (up, down):  1.494E-05 0.000E+00

     total cpu time spent up to now is       10.0 secs

     total energy              =     -23.91023333 Ry
     estimated scf accuracy    <       0.00008174 Ry

     iteration # 24     ecut=    75.00 Ry     beta= 0.70
     Davidson diagonalization with overlap
     ethr =  5.66E-07,  avg # of iterations =  2.1

     negative rho (up, down):  1.571E-05 0.000E+00

     total cpu time spent up to now is       10.3 secs

     total energy              =     -23.91022855 Ry
     estimated scf accuracy    <       0.00001738 Ry

     iteration # 25     ecut=    75.00 Ry     beta= 0.70
     Davidson diagonalization with overlap
     ethr =  2.17E-07,  avg # of iterations =  4.1

     negative rho (up, down):  1.324E-05 0.000E+00

     total cpu time spent up to now is       10.6 secs

     total energy              =     -23.91024123 Ry
     estimated scf accuracy    <       0.00001251 Ry

     iteration # 26     ecut=    75.00 Ry     beta= 0.70
     Davidson diagonalization with overlap
     ethr =  1.56E-07,  avg # of iterations =  1.2

     negative rho (up, down):  1.357E-05 0.000E+00

     total cpu time spent up to now is       10.9 secs

     total energy              =     -23.91024043 Ry
     estimated scf accuracy    <       0.00000198 Ry

     iteration # 27     ecut=    75.00 Ry     beta= 0.70
     Davidson diagonalization with overlap
     ethr =  2.47E-08,  avg # of iterations =  3.8

     negative rho (up, down):  1.369E-05 0.000E+00

     total cpu time spent up to now is       11.2 secs

     total energy              =     -23.91024181 Ry
     estimated scf accuracy    <       0.00000034 Ry

     iteration # 28     ecut=    75.00 Ry     beta= 0.70
     Davidson diagonalization with overlap
     ethr =  4.27E-09,  avg # of iterations =  3.4

     negative rho (up, down):  1.379E-05 0.000E+00

     total cpu time spent up to now is       11.6 secs

     End of self-consistent calculation

          k = 0.0000 0.0000 0.0000 (  5827 PWs)   bands (ev):

   -21.2455  -9.3486  -4.7872  -4.7872   1.4490   2.2891   2.5749   4.5301

          k = 0.0000 0.0962 0.0000 (  5879 PWs)   bands (ev):

   -21.0815  -9.1523  -5.4360  -5.1255   1.6731   2.5149   2.8016   4.7534

          k = 0.0000 0.1925 0.0000 (  5881 PWs)   bands (ev):

   -20.5916  -8.5688  -7.0702  -5.9180   2.3452   3.1909   3.4818   5.4206

          k = 0.0000 0.2887 0.0000 (  5891 PWs)   bands (ev):

   -19.7813  -9.1658  -7.6174  -6.7979   3.4633   4.3018   4.6145   5.5449

          k = 0.0000 0.3849 0.0000 (  5869 PWs)   bands (ev):

   -18.6627 -11.3675  -7.5315  -6.3482   3.2016   5.0171   5.9086   5.9944

          k = 0.0000 0.4811 0.0000 (  5815 PWs)   bands (ev):

   -17.2666 -13.4671  -8.0045  -4.9244   1.0643   5.7646   7.0351   7.9068

          k = 0.0000-0.5774 0.0000 (  5814 PWs)   bands (ev):

   -15.9999 -14.9762  -8.1669  -4.0790  -0.0346   5.6869   9.3579   9.4979

          k = 0.0833 0.1443 0.0000 (  5871 PWs)   bands (ev):

   -20.7546  -8.7623  -6.4672  -5.8028   2.1214   2.9659   3.2552   5.1991

          k = 0.0833 0.2406 0.0000 (  5868 PWs)   bands (ev):

   -20.1045  -8.1741  -7.9937  -6.8006   3.0172   3.8645   4.1624   6.0773

          k = 0.0833 0.3368 0.0000 (  5851 PWs)   bands (ev):

   -19.1399 -10.2451  -7.6867  -6.8769   4.2139   4.3567   5.2337   5.5210

          k = 0.0833 0.4330 0.0000 (  5827 PWs)   bands (ev):

   -17.8795 -12.3669  -8.3215  -5.4963   2.0125   6.1164   6.6100   7.0030

          k = 0.0833 0.5292 0.0000 (  5816 PWs)   bands (ev):

   -16.3990 -14.3089  -8.6499  -4.1859   0.2420   6.4233   8.3413   9.1764

          k = 0.1667 0.2887 0.0000 (  5853 PWs)   bands (ev):

   -19.3000  -9.5019  -8.1623  -7.0558   4.1354   4.6723   4.9817   5.2967

          k = 0.1667 0.3849 0.0000 (  5823 PWs)   bands (ev):

   -18.1923 -11.2279  -9.2180  -5.8018   2.7225   5.6922   6.5258   6.8815

          k = 0.1667 0.4811 0.0000 (  5806 PWs)   bands (ev):

   -16.8162 -13.1386  -9.7933  -4.3739   0.8083   7.6629   8.3283   8.4257

          k = 0.1667 0.5774 0.0000 (  5806 PWs)   bands (ev):

   -15.5791 -14.5760  -9.9779  -3.4804  -0.2610   8.2282   9.8887   9.9277

          k = 0.2500 0.4330 0.0000 (  5808 PWs)   bands (ev):

   -16.9640 -12.2609 -10.7020  -4.4581   1.1065   7.4513   8.1413   8.6877

          k = 0.2500 0.5292 0.0000 (  5811 PWs)   bands (ev):

   -15.5410 -13.6828 -11.4090  -3.0712  -0.4151   9.1587   9.5630  10.4860

          k = 0.3333 0.5774 0.0000 (  5808 PWs)   bands (ev):

   -14.3229 -14.3229 -12.3081  -1.7141  -1.7141   8.9032  11.1648  11.1651

     the Fermi energy is    -1.6762 ev

!    total energy              =     -23.91024196 Ry
     estimated scf accuracy    <          4.6E-09 Ry
     smearing contrib. (-TS)   =      -0.00018232 Ry
     internal energy E=F+TS    =     -23.91005964 Ry

     The total energy is F=E-TS. E is the sum of the following terms:
     one-electron contribution =    -157.39820981 Ry
     hartree contribution      =      80.16176887 Ry
     xc contribution           =      -8.30326582 Ry
     ewald contribution        =      61.62964712 Ry

     convergence has been achieved in  28 iterations

     negative rho (up, down):  1.379E-05 0.000E+00

     Forces acting on atoms (cartesian axes, Ry/au):

     atom    1 type  1   force =     0.00000000   -0.00000000    0.00000000
     atom    2 type  1   force =     0.00000000    0.00000000    0.00000000

     Total force =     0.000000     Total SCF correction =     0.000000


     Computing stress (Cartesian axis) and pressure


     negative rho (up, down):  1.379E-05 0.000E+00
          total   stress  (Ry/bohr**3)                   (kbar)     P=        0.20
   0.00000214  -0.00000000   0.00000000            0.31       -0.00        0.00
  -0.00000000   0.00000214  -0.00000000           -0.00        0.31       -0.00
   0.00000000  -0.00000000  -0.00000021            0.00       -0.00       -0.03


     Writing all to output data dir /run/media/rfa/SATA/Skripsi/DFT/dft-graphene/tmp/gr-1L.save/ :
     XML data file, charge density, pseudopotentials, collected wavefunctions

     init_run     :      0.45s CPU      0.60s WALL (       1 calls)
     electrons    :     19.12s CPU     10.89s WALL (       1 calls)
     forces       :      0.06s CPU      0.04s WALL (       1 calls)
     stress       :      0.18s CPU      0.12s WALL (       1 calls)

     Called by init_run:
     wfcinit      :      0.16s CPU      0.09s WALL (       1 calls)
     potinit      :      0.01s CPU      0.02s WALL (       1 calls)
     hinit0       :      0.23s CPU      0.43s WALL (       1 calls)

     Called by electrons:
     c_bands      :     15.70s CPU      8.71s WALL (      29 calls)
     sum_band     :      2.60s CPU      1.42s WALL (      29 calls)
     v_of_rho     :      0.26s CPU      0.28s WALL (      29 calls)
     newd         :      0.30s CPU      0.28s WALL (      29 calls)
     mix_rho      :      0.23s CPU      0.17s WALL (      29 calls)

     Called by c_bands:
     init_us_2    :      0.43s CPU      0.24s WALL (    1159 calls)
     cegterg      :     14.89s CPU      8.22s WALL (     551 calls)

     Called by *egterg:
     cdiaghg      :      0.72s CPU      0.37s WALL (    2774 calls)
     h_psi        :     11.56s CPU      6.47s WALL (    2812 calls)
     s_psi        :      0.22s CPU      0.12s WALL (    2812 calls)
     g_psi        :      0.15s CPU      0.07s WALL (    2242 calls)

     Called by h_psi:
     h_psi:calbec :      0.98s CPU      0.54s WALL (    2812 calls)
     vloc_psi     :      9.89s CPU      5.55s WALL (    2812 calls)
     add_vuspsi   :      0.48s CPU      0.25s WALL (    2812 calls)

     General routines
     calbec       :      1.13s CPU      0.62s WALL (    3686 calls)
     fft          :      0.34s CPU      0.54s WALL (     345 calls)
     ffts         :      0.01s CPU      0.01s WALL (      29 calls)
     fftw         :      9.13s CPU      5.16s WALL (   33436 calls)

     Parallel routines

     PWSCF        :     19.92s CPU     11.98s WALL


   This run was terminated on:  23:38:27  21Apr2025            

=------------------------------------------------------------------------------=
   JOB DONE.
=------------------------------------------------------------------------------=
