
     Program PWSCF v.7.4.1 starts on 16Apr2025 at 15: 7: 0 

     This program is part of the open-source Quantum ESPRESSO suite
     for quantum simulation of materials; please cite
         "P. Giannozzi et al., J. Phys.:Condens. Matter 21 395502 (2009);
         "P. Giannozzi et al., J. Phys.:Condens. Matter 29 465901 (2017);
         "P. Giannozzi et al., J. Chem. Phys. 152 154105 (2020);
          URL http://www.quantum-espresso.org", 
     in publications or presentations arising from this work. More details at
     http://www.quantum-espresso.org/quote

     Parallel version (MPI), running on     7 processors

     MPI processes distributed on     1 nodes
     15172 MiB available memory on the printing compute node when the environment starts

     Waiting for input...
     Reading input from standard input

     Current dimensions of program PWSCF are:
     Max number of different atomic species (ntypx) = 10
     Max number of k-points (npk) =  40000
     Max angular momentum in pseudopotentials (lmaxx) =  4

     R & G space division:  proc/nbgrp/npool/nimage =       7
     Subspace diagonalization in iterative solution of the eigenvalue problem:
     a serial algorithm will be used


     Parallelization info
     --------------------
     sticks:   dense  smooth     PW     G-vecs:    dense   smooth      PW
     Min          21      21      7                 1209     1209     253
     Max          22      22      8                 1218     1218     266
     Sum         151     151     55                 8507     8507    1811

     Using Slab Decomposition



     bravais-lattice index     =            4
     lattice parameter (alat)  =       4.6561  a.u.
     unit-cell volume          =     532.1899 (a.u.)^3
     number of atoms/cell      =            2
     number of atomic types    =            1
     number of electrons       =         8.00
     number of Kohn-Sham states=            8
     kinetic-energy cutoff     =      24.0000  Ry
     charge density cutoff     =      96.0000  Ry
     scf convergence threshold =      1.0E-08
     mixing beta               =       0.7000
     number of iterations used =            8  plain     mixing
     Exchange-correlation= PBE
                           (   1   4   3   4   0   0   0)

     celldm(1)=   4.656107  celldm(2)=   0.000000  celldm(3)=   6.087896
     celldm(4)=   0.000000  celldm(5)=   0.000000  celldm(6)=   0.000000

     crystal axes: (cart. coord. in units of alat)
               a(1) = (   1.000000   0.000000   0.000000 )  
               a(2) = (  -0.500000   0.866025   0.000000 )  
               a(3) = (   0.000000   0.000000   6.087896 )  

     reciprocal axes: (cart. coord. in units 2 pi/alat)
               b(1) = (  1.000000  0.577350 -0.000000 )  
               b(2) = (  0.000000  1.154701  0.000000 )  
               b(3) = (  0.000000 -0.000000  0.164260 )  


     PseudoPot. # 1 for C  read from file:
     /home/rfa/Skripsi/DFT/dft-graphene/pseudo/C.pbe-n-rrkjus_psl.0.1.UPF
     MD5 check sum: 96a6a315177d77e6c95bf6fd3870f9e3
     Pseudo is Ultrasoft + core correction, Zval =  4.0
     Generated using &quot;atomic&quot; code by A. Dal Corso  v.6.3MaX
     Using radial grid of 1073 points,  4 beta functions with: 
                l(1) =   0
                l(2) =   0
                l(3) =   1
                l(4) =   1
     Q(r) pseudized with 0 coefficients 


     atomic species   valence    mass     pseudopotential
     C                 4.00    12.01070     C ( 1.00)

     24 Sym. Ops., with inversion, found



   Cartesian axes

     site n.     atom                  positions (alat units)
         1        C      tau(   1) = (   0.0000000   0.5773503   3.0439478  )
         2        C      tau(   2) = (   0.5000000   0.2886751   3.0439478  )

     number of k points=    19  Marzari-Vanderbilt smearing, width (Ry)=  0.0200
                       cart. coord. in units 2pi/alat
        k(    1) = (   0.0000000   0.0000000   0.0000000), wk =   0.0138889
        k(    2) = (   0.0000000   0.0962250   0.0000000), wk =   0.0833333
        k(    3) = (   0.0000000   0.1924501   0.0000000), wk =   0.0833333
        k(    4) = (   0.0000000   0.2886751   0.0000000), wk =   0.0833333
        k(    5) = (   0.0000000   0.3849002   0.0000000), wk =   0.0833333
        k(    6) = (   0.0000000   0.4811252   0.0000000), wk =   0.0833333
        k(    7) = (   0.0000000  -0.5773503   0.0000000), wk =   0.0416667
        k(    8) = (   0.0833333   0.1443376   0.0000000), wk =   0.0833333
        k(    9) = (   0.0833333   0.2405626   0.0000000), wk =   0.1666667
        k(   10) = (   0.0833333   0.3367877   0.0000000), wk =   0.1666667
        k(   11) = (   0.0833333   0.4330127   0.0000000), wk =   0.1666667
        k(   12) = (   0.0833333   0.5292377   0.0000000), wk =   0.1666667
        k(   13) = (   0.1666667   0.2886751   0.0000000), wk =   0.0833333
        k(   14) = (   0.1666667   0.3849002   0.0000000), wk =   0.1666667
        k(   15) = (   0.1666667   0.4811252   0.0000000), wk =   0.1666667
        k(   16) = (   0.1666667   0.5773503   0.0000000), wk =   0.0833333
        k(   17) = (   0.2500000   0.4330127   0.0000000), wk =   0.0833333
        k(   18) = (   0.2500000   0.5292377   0.0000000), wk =   0.1666667
        k(   19) = (   0.3333333   0.5773503   0.0000000), wk =   0.0277778

     Dense  grid:     8507 G-vectors     FFT dimensions: (  15,  15,  90)

     Estimated max dynamical RAM per process >       2.26 MB

     Estimated total dynamical RAM >      15.81 MB

     Check: negative core charge=   -0.000106

     Initial potential from superposition of free atoms

     starting charge       7.9999, renormalised to       8.0000

     negative rho (up, down):  7.315E-03 0.000E+00
     Starting wfcs are    8 randomized atomic wfcs

     total cpu time spent up to now is        0.3 secs

     per-process dynamical memory:     8.0 Mb

     Self-consistent Calculation

     iteration #  1     ecut=    24.00 Ry     beta= 0.70
     Davidson diagonalization with overlap
     ethr =  1.00E-02,  avg # of iterations =  9.8

     negative rho (up, down):  1.575E-03 0.000E+00

     total cpu time spent up to now is        0.4 secs

     total energy              =     -23.81532589 Ry
     estimated scf accuracy    <       0.14338114 Ry

     iteration #  2     ecut=    24.00 Ry     beta= 0.70
     Davidson diagonalization with overlap
     ethr =  1.79E-03,  avg # of iterations =  4.3

     negative rho (up, down):  8.557E-04 0.000E+00

     total cpu time spent up to now is        0.5 secs

     total energy              =     -23.82560396 Ry
     estimated scf accuracy    <       0.00457978 Ry

     iteration #  3     ecut=    24.00 Ry     beta= 0.70
     Davidson diagonalization with overlap
     c_bands:  1 eigenvalues not converged
     c_bands:  1 eigenvalues not converged
     ethr =  5.72E-05,  avg # of iterations = 12.8

     negative rho (up, down):  1.136E-03 0.000E+00

     total cpu time spent up to now is        0.6 secs

     total energy              =     -23.82820192 Ry
     estimated scf accuracy    <       0.00071920 Ry

     iteration #  4     ecut=    24.00 Ry     beta= 0.70
     Davidson diagonalization with overlap
     c_bands:  1 eigenvalues not converged
     ethr =  8.99E-06,  avg # of iterations =  7.5

     negative rho (up, down):  1.128E-03 0.000E+00

     total cpu time spent up to now is        0.7 secs

     total energy              =     -23.82823522 Ry
     estimated scf accuracy    <       0.00062439 Ry

     iteration #  5     ecut=    24.00 Ry     beta= 0.70
     Davidson diagonalization with overlap
     c_bands:  1 eigenvalues not converged
     ethr =  7.80E-06,  avg # of iterations =  4.1

     negative rho (up, down):  1.121E-03 0.000E+00

     total cpu time spent up to now is        0.8 secs

     total energy              =     -23.82831968 Ry
     estimated scf accuracy    <       0.00000189 Ry

     iteration #  6     ecut=    24.00 Ry     beta= 0.70
     Davidson diagonalization with overlap
     ethr =  2.37E-08,  avg # of iterations =  5.9

     negative rho (up, down):  1.131E-03 0.000E+00

     total cpu time spent up to now is        0.8 secs

     total energy              =     -23.82832664 Ry
     estimated scf accuracy    <       0.00000266 Ry

     iteration #  7     ecut=    24.00 Ry     beta= 0.70
     Davidson diagonalization with overlap
     ethr =  2.37E-08,  avg # of iterations =  2.0

     negative rho (up, down):  1.135E-03 0.000E+00

     total cpu time spent up to now is        0.9 secs

     total energy              =     -23.82832702 Ry
     estimated scf accuracy    <       0.00000002 Ry

     iteration #  8     ecut=    24.00 Ry     beta= 0.70
     Davidson diagonalization with overlap
     ethr =  2.84E-10,  avg # of iterations =  4.1

     negative rho (up, down):  1.136E-03 0.000E+00

     total cpu time spent up to now is        1.0 secs

     total energy              =     -23.82832703 Ry
     estimated scf accuracy    <       0.00000002 Ry

     iteration #  9     ecut=    24.00 Ry     beta= 0.70
     Davidson diagonalization with overlap
     ethr =  2.38E-10,  avg # of iterations =  1.2

     negative rho (up, down):  1.137E-03 0.000E+00

     total cpu time spent up to now is        1.0 secs

     End of self-consistent calculation

          k = 0.0000 0.0000 0.0000 (  1077 PWs)   bands (ev):

   -21.5003  -9.3726  -4.8071  -4.8071   0.4853   1.1588   1.4962   3.5191

          k = 0.0000 0.0962 0.0000 (  1089 PWs)   bands (ev):

   -21.3350  -9.1838  -5.4938  -5.1753   0.7128   1.3860   1.7221   3.7421

          k = 0.0000 0.1925 0.0000 (  1078 PWs)   bands (ev):

   -20.8384  -8.5986  -7.1437  -5.9732   1.3956   2.0673   2.4000   4.4112

          k = 0.0000 0.2887 0.0000 (  1064 PWs)   bands (ev):

   -20.0160  -9.2621  -7.6412  -6.8407   2.5328   3.1982   3.5291   5.4281

          k = 0.0000 0.3849 0.0000 (  1044 PWs)   bands (ev):

   -18.8769 -11.4741  -7.5613  -6.3312   3.3065   4.1231   4.8156   5.1062

          k = 0.0000 0.4811 0.0000 (  1052 PWs)   bands (ev):

   -17.4700 -13.6107  -8.0360  -4.8934   1.1253   5.5898   6.1662   6.8379

          k = 0.0000-0.5774 0.0000 (  1062 PWs)   bands (ev):

   -16.2086 -15.1108  -8.2151  -4.0495  -0.0122   5.4958   8.6329   8.6427

          k = 0.0833 0.1443 0.0000 (  1077 PWs)   bands (ev):

   -21.0039  -8.7888  -6.5380  -5.8468   1.1680   1.8405   2.1741   4.1893

          k = 0.0833 0.2406 0.0000 (  1065 PWs)   bands (ev):

   -20.3441  -8.2638  -8.0165  -6.8319   2.0781   2.7478   3.0779   5.0763

          k = 0.0833 0.3368 0.0000 (  1061 PWs)   bands (ev):

   -19.3648 -10.3538  -7.7347  -6.8837   3.4420   4.0569   4.3962   4.4320

          k = 0.0833 0.4330 0.0000 (  1047 PWs)   bands (ev):

   -18.0883 -12.4878  -8.3719  -5.4664   2.0957   5.2559   5.9277   6.2226

          k = 0.0833 0.5292 0.0000 (  1043 PWs)   bands (ev):

   -16.5909 -14.4462  -8.6961  -4.1324   0.2951   6.2687   7.5165   8.1664

          k = 0.1667 0.2887 0.0000 (  1057 PWs)   bands (ev):

   -19.5267  -9.6114  -8.2017  -7.0489   3.2151   3.8800   4.2072   4.8356

          k = 0.1667 0.3849 0.0000 (  1060 PWs)   bands (ev):

   -18.4090 -11.3497  -9.2907  -5.7826   2.8380   4.8030   5.4564   5.7830

          k = 0.1667 0.4811 0.0000 (  1048 PWs)   bands (ev):

   -17.0160 -13.2734  -9.8627  -4.3361   0.9034   6.8362   7.4485   7.7961

          k = 0.1667 0.5774 0.0000 (  1040 PWs)   bands (ev):

   -15.7777 -14.7074 -10.0426  -3.4280  -0.1887   8.1467   9.2750   9.3025

          k = 0.2500 0.4330 0.0000 (  1052 PWs)   bands (ev):

   -17.1676 -12.3917 -10.7904  -4.4412   1.2283   6.6100   7.1916   7.5750

          k = 0.2500 0.5292 0.0000 (  1041 PWs)   bands (ev):

   -15.7256 -13.8204 -11.4959  -3.0184  -0.3268   8.7858   8.8388   9.7797

          k = 0.3333 0.5774 0.0000 (  1050 PWs)   bands (ev):

   -14.4974 -14.4974 -12.3906  -1.6445  -1.6445   8.6709  10.9239  10.9240

     the Fermi energy is    -1.6066 ev

!    total energy              =     -23.82832702 Ry
     estimated scf accuracy    <          3.4E-09 Ry
     smearing contrib. (-TS)   =      -0.00018232 Ry
     internal energy E=F+TS    =     -23.82814470 Ry

     The total energy is F=E-TS. E is the sum of the following terms:
     one-electron contribution =    -157.20128366 Ry
     hartree contribution      =      80.02565807 Ry
     xc contribution           =      -8.28216622 Ry
     ewald contribution        =      61.62964711 Ry

     convergence has been achieved in   9 iterations

     negative rho (up, down):  1.137E-03 0.000E+00

     Forces acting on atoms (cartesian axes, Ry/au):

     atom    1 type  1   force =     0.00000000    0.00000000    0.00000000
     atom    2 type  1   force =     0.00000000    0.00000000    0.00000000

     Total force =     0.000000     Total SCF correction =     0.000000


     Computing stress (Cartesian axis) and pressure


     negative rho (up, down):  1.137E-03 0.000E+00
          total   stress  (Ry/bohr**3)                   (kbar)     P=     -116.56
  -0.00070628   0.00000000  -0.00000000         -103.90        0.00       -0.00
   0.00000000  -0.00070628   0.00000000            0.00     -103.90        0.00
  -0.00000000   0.00000000  -0.00096457           -0.00        0.00     -141.89


     Writing all to output data dir /home/rfa/Skripsi/DFT/dft-graphene/tmp/gr-1L.save/ :
     XML data file, charge density, pseudopotentials, collected wavefunctions

     init_run     :      0.17s CPU      0.24s WALL (       1 calls)
     electrons    :      1.19s CPU      0.71s WALL (       1 calls)
     forces       :      0.01s CPU      0.01s WALL (       1 calls)
     stress       :      0.01s CPU      0.02s WALL (       1 calls)

     Called by init_run:
     wfcinit      :      0.03s CPU      0.02s WALL (       1 calls)
     potinit      :      0.00s CPU      0.00s WALL (       1 calls)
     hinit0       :      0.13s CPU      0.21s WALL (       1 calls)

     Called by electrons:
     c_bands      :      1.05s CPU      0.61s WALL (       9 calls)
     sum_band     :      0.12s CPU      0.07s WALL (       9 calls)
     v_of_rho     :      0.01s CPU      0.01s WALL (      10 calls)
     newd         :      0.01s CPU      0.01s WALL (      10 calls)
     mix_rho      :      0.00s CPU      0.00s WALL (       9 calls)

     Called by c_bands:
     init_us_2    :      0.02s CPU      0.01s WALL (     399 calls)
     cegterg      :      0.99s CPU      0.56s WALL (     171 calls)

     Called by *egterg:
     cdiaghg      :      0.22s CPU      0.10s WALL (    1149 calls)
     h_psi        :      0.64s CPU      0.37s WALL (    1168 calls)
     s_psi        :      0.01s CPU      0.01s WALL (    1168 calls)
     g_psi        :      0.01s CPU      0.01s WALL (     978 calls)

     Called by h_psi:
     h_psi:calbec :      0.03s CPU      0.02s WALL (    1168 calls)
     vloc_psi     :      0.56s CPU      0.33s WALL (    1168 calls)
     add_vuspsi   :      0.02s CPU      0.01s WALL (    1168 calls)

     General routines
     calbec       :      0.04s CPU      0.02s WALL (    1662 calls)
     fft          :      0.13s CPU      0.21s WALL (     135 calls)
     ffts         :      0.00s CPU      0.00s WALL (       9 calls)
     fftw         :      0.53s CPU      0.30s WALL (   11298 calls)

     Parallel routines

     PWSCF        :      1.44s CPU      1.10s WALL


   This run was terminated on:  15: 7: 1  16Apr2025            

=------------------------------------------------------------------------------=
   JOB DONE.
=------------------------------------------------------------------------------=
