
     Program PWSCF v.7.4.1 starts on 16Apr2025 at 15:31:14 

     This program is part of the open-source Quantum ESPRESSO suite
     for quantum simulation of materials; please cite
         "P. Giannozzi et al., J. Phys.:Condens. Matter 21 395502 (2009);
         "P. Giannozzi et al., J. Phys.:Condens. Matter 29 465901 (2017);
         "P. Giannozzi et al., J. Chem. Phys. 152 154105 (2020);
          URL http://www.quantum-espresso.org", 
     in publications or presentations arising from this work. More details at
     http://www.quantum-espresso.org/quote

     Parallel version (MPI), running on     7 processors

     MPI processes distributed on     1 nodes
     14435 MiB available memory on the printing compute node when the environment starts

     Waiting for input...
     Reading input from standard input

     Current dimensions of program PWSCF are:
     Max number of different atomic species (ntypx) = 10
     Max number of k-points (npk) =  40000
     Max angular momentum in pseudopotentials (lmaxx) =  4

     R & G space division:  proc/nbgrp/npool/nimage =       7
     Subspace diagonalization in iterative solution of the eigenvalue problem:
     a serial algorithm will be used


     Parallelization info
     --------------------
     sticks:   dense  smooth     PW     G-vecs:    dense   smooth      PW
     Min          43      43     13                 3639     3639     639
     Max          43      43     13                 3649     3649     655
     Sum         301     301     91                25507    25507    4493

     Using Slab Decomposition



     bravais-lattice index     =            4
     lattice parameter (alat)  =       4.6561  a.u.
     unit-cell volume          =     532.1899 (a.u.)^3
     number of atoms/cell      =            8
     number of atomic types    =            1
     number of electrons       =        32.00
     number of Kohn-Sham states=           20
     kinetic-energy cutoff     =      50.0000  Ry
     charge density cutoff     =     200.0000  Ry
     scf convergence threshold =      1.0E-08
     mixing beta               =       0.7000
     number of iterations used =            8  plain     mixing
     Exchange-correlation= PBE
                           (   1   4   3   4   0   0   0)

     celldm(1)=   4.656107  celldm(2)=   0.000000  celldm(3)=   6.087896
     celldm(4)=   0.000000  celldm(5)=   0.000000  celldm(6)=   0.000000

     crystal axes: (cart. coord. in units of alat)
               a(1) = (   1.000000   0.000000   0.000000 )  
               a(2) = (  -0.500000   0.866025   0.000000 )  
               a(3) = (   0.000000   0.000000   6.087896 )  

     reciprocal axes: (cart. coord. in units 2 pi/alat)
               b(1) = (  1.000000  0.577350 -0.000000 )  
               b(2) = (  0.000000  1.154701  0.000000 )  
               b(3) = (  0.000000 -0.000000  0.164260 )  


     PseudoPot. # 1 for C  read from file:
     /run/media/rfa/SATA/Skripsi/DFT/Graphene-copy/pseudo/C.pbe-n-rrkjus_psl.0.1.UPF
     MD5 check sum: 96a6a315177d77e6c95bf6fd3870f9e3
     Pseudo is Ultrasoft + core correction, Zval =  4.0
     Generated using &quot;atomic&quot; code by A. Dal Corso  v.6.3MaX
     Using radial grid of 1073 points,  4 beta functions with: 
                l(1) =   0
                l(2) =   0
                l(3) =   1
                l(4) =   1
     Q(r) pseudized with 0 coefficients 


     atomic species   valence    mass     pseudopotential
     C                 4.00    12.01070     C ( 1.00)

      6 Sym. Ops. (no inversion) found



   Cartesian axes

     site n.     atom                  positions (alat units)
         1        C      tau(   1) = (   0.0000000   0.5773503   3.0439478  )
         2        C      tau(   2) = (   0.5000000   0.2886751   3.0439478  )
         3        C      tau(   3) = (   0.0000000   0.0000000   3.2468777  )
         4        C      tau(   4) = (   0.0000000   0.5773503   3.2468777  )
         5        C      tau(   5) = (   0.5000000   0.2886751   3.4498075  )
         6        C      tau(   6) = (   0.0000000   0.0000000   3.4498075  )
         7        C      tau(   7) = (   0.0000000   0.5773503   3.6527374  )
         8        C      tau(   8) = (   0.5000000   0.2886751   3.6527374  )

     number of k points=    19  Marzari-Vanderbilt smearing, width (Ry)=  0.0200
                       cart. coord. in units 2pi/alat
        k(    1) = (   0.0000000   0.0000000   0.0000000), wk =   0.0138889
        k(    2) = (   0.0000000   0.0962250   0.0000000), wk =   0.0833333
        k(    3) = (   0.0000000   0.1924501   0.0000000), wk =   0.0833333
        k(    4) = (   0.0000000   0.2886751   0.0000000), wk =   0.0833333
        k(    5) = (   0.0000000   0.3849002   0.0000000), wk =   0.0833333
        k(    6) = (   0.0000000   0.4811252   0.0000000), wk =   0.0833333
        k(    7) = (   0.0000000  -0.5773503   0.0000000), wk =   0.0416667
        k(    8) = (   0.0833333   0.1443376   0.0000000), wk =   0.0833333
        k(    9) = (   0.0833333   0.2405626   0.0000000), wk =   0.1666667
        k(   10) = (   0.0833333   0.3367877   0.0000000), wk =   0.1666667
        k(   11) = (   0.0833333   0.4330127   0.0000000), wk =   0.1666667
        k(   12) = (   0.0833333   0.5292377   0.0000000), wk =   0.1666667
        k(   13) = (   0.1666667   0.2886751   0.0000000), wk =   0.0833333
        k(   14) = (   0.1666667   0.3849002   0.0000000), wk =   0.1666667
        k(   15) = (   0.1666667   0.4811252   0.0000000), wk =   0.1666667
        k(   16) = (   0.1666667   0.5773503   0.0000000), wk =   0.0833333
        k(   17) = (   0.2500000   0.4330127   0.0000000), wk =   0.0833333
        k(   18) = (   0.2500000   0.5292377   0.0000000), wk =   0.1666667
        k(   19) = (   0.3333333   0.5773503   0.0000000), wk =   0.0277778

     Dense  grid:    25507 G-vectors     FFT dimensions: (  24,  24, 128)

     Estimated max dynamical RAM per process >       9.45 MB

     Estimated total dynamical RAM >      66.16 MB

     Check: negative core charge=   -0.000007

     Initial potential from superposition of free atoms

     starting charge      31.9997, renormalised to      32.0000

     negative rho (up, down):  4.819E-04 0.000E+00
     Starting wfcs are   32 randomized atomic wfcs

     total cpu time spent up to now is        1.6 secs

     per-process dynamical memory:    12.9 Mb

     Self-consistent Calculation

     iteration #  1     ecut=    50.00 Ry     beta= 0.70
     Davidson diagonalization with overlap
     ethr =  1.00E-02,  avg # of iterations =  9.0

     negative rho (up, down):  1.917E-03 0.000E+00

     total cpu time spent up to now is        8.8 secs

     total energy              =     -50.23796907 Ry
     estimated scf accuracy    <      18.14914359 Ry

     iteration #  2     ecut=    50.00 Ry     beta= 0.70
     Davidson diagonalization with overlap
     c_bands:  1 eigenvalues not converged
     c_bands:  4 eigenvalues not converged
     c_bands:  4 eigenvalues not converged
     c_bands:  2 eigenvalues not converged
     c_bands:  1 eigenvalues not converged
     c_bands:  1 eigenvalues not converged
     ethr =  1.00E-02,  avg # of iterations = 17.8

     total cpu time spent up to now is       19.1 secs

     total energy              =     -34.99856795 Ry
     estimated scf accuracy    <     100.22854598 Ry

     iteration #  3     ecut=    50.00 Ry     beta= 0.70
     Davidson diagonalization with overlap
     c_bands:  3 eigenvalues not converged
     ethr =  1.00E-02,  avg # of iterations = 14.4

     total cpu time spent up to now is       28.1 secs

     total energy              =     -57.98132562 Ry
     estimated scf accuracy    <       3.25970151 Ry

     iteration #  4     ecut=    50.00 Ry     beta= 0.70
     Davidson diagonalization with overlap
     ethr =  1.00E-02,  avg # of iterations =  2.6

     total cpu time spent up to now is       30.4 secs

     total energy              =     -58.02829894 Ry
     estimated scf accuracy    <       1.33789219 Ry

     iteration #  5     ecut=    50.00 Ry     beta= 0.70
     Davidson diagonalization with overlap
     ethr =  4.18E-03,  avg # of iterations =  3.7

     total cpu time spent up to now is       32.7 secs

     total energy              =     -58.04691348 Ry
     estimated scf accuracy    <       1.05903560 Ry

     iteration #  6     ecut=    50.00 Ry     beta= 0.70
     Davidson diagonalization with overlap
     ethr =  3.31E-03,  avg # of iterations =  2.4

     total cpu time spent up to now is       35.1 secs

     total energy              =     -57.97824736 Ry
     estimated scf accuracy    <       1.14817996 Ry

     iteration #  7     ecut=    50.00 Ry     beta= 0.70
     Davidson diagonalization with overlap
     ethr =  3.31E-03,  avg # of iterations =  1.1

     total cpu time spent up to now is       37.2 secs

     total energy              =     -57.99695304 Ry
     estimated scf accuracy    <       0.45923177 Ry

     iteration #  8     ecut=    50.00 Ry     beta= 0.70
     Davidson diagonalization with overlap
     ethr =  1.44E-03,  avg # of iterations =  2.6

     total cpu time spent up to now is       39.3 secs

     total energy              =     -58.06369157 Ry
     estimated scf accuracy    <       0.34433072 Ry

     iteration #  9     ecut=    50.00 Ry     beta= 0.70
     Davidson diagonalization with overlap
     ethr =  1.08E-03,  avg # of iterations =  1.5

     total cpu time spent up to now is       41.2 secs

     total energy              =     -57.95275638 Ry
     estimated scf accuracy    <       0.36067332 Ry

     iteration # 10     ecut=    50.00 Ry     beta= 0.70
     Davidson diagonalization with overlap
     ethr =  1.08E-03,  avg # of iterations =  4.1

     total cpu time spent up to now is       44.2 secs

     total energy              =     -57.96258428 Ry
     estimated scf accuracy    <       0.15517791 Ry

     iteration # 11     ecut=    50.00 Ry     beta= 0.70
     Davidson diagonalization with overlap
     ethr =  4.85E-04,  avg # of iterations =  8.7

     negative rho (up, down):  5.187E-04 0.000E+00

     total cpu time spent up to now is       48.9 secs

     total energy              =     -58.00279862 Ry
     estimated scf accuracy    <       0.14606781 Ry

     iteration # 12     ecut=    50.00 Ry     beta= 0.70
     Davidson diagonalization with overlap
     ethr =  4.56E-04,  avg # of iterations = 11.4

     negative rho (up, down):  7.215E-05 0.000E+00

     total cpu time spent up to now is       54.8 secs

     total energy              =     -57.99962256 Ry
     estimated scf accuracy    <       0.16866834 Ry

     iteration # 13     ecut=    50.00 Ry     beta= 0.70
     Davidson diagonalization with overlap
     ethr =  4.56E-04,  avg # of iterations =  1.2

     negative rho (up, down):  6.365E-04 0.000E+00

     total cpu time spent up to now is       56.9 secs

     total energy              =     -57.99098480 Ry
     estimated scf accuracy    <       0.08479111 Ry

     iteration # 14     ecut=    50.00 Ry     beta= 0.70
     Davidson diagonalization with overlap
     ethr =  2.65E-04,  avg # of iterations =  1.2

     negative rho (up, down):  1.786E-03 0.000E+00

     total cpu time spent up to now is       58.4 secs

     total energy              =     -57.98123589 Ry
     estimated scf accuracy    <       0.05000406 Ry

     iteration # 15     ecut=    50.00 Ry     beta= 0.70
     Davidson diagonalization with overlap
     ethr =  1.56E-04,  avg # of iterations =  2.5

     negative rho (up, down):  1.643E-03 0.000E+00

     total cpu time spent up to now is       60.8 secs

     total energy              =     -57.97505563 Ry
     estimated scf accuracy    <       0.02247876 Ry

     iteration # 16     ecut=    50.00 Ry     beta= 0.70
     Davidson diagonalization with overlap
     c_bands:  1 eigenvalues not converged
     ethr =  7.02E-05,  avg # of iterations =  7.5

     negative rho (up, down):  1.141E-03 0.000E+00

     total cpu time spent up to now is       65.0 secs

     total energy              =     -57.98010695 Ry
     estimated scf accuracy    <       0.00264920 Ry

     iteration # 17     ecut=    50.00 Ry     beta= 0.70
     Davidson diagonalization with overlap
     c_bands:  1 eigenvalues not converged
     c_bands:  1 eigenvalues not converged
     c_bands:  3 eigenvalues not converged
     c_bands:  1 eigenvalues not converged
     c_bands:  1 eigenvalues not converged
     c_bands:  1 eigenvalues not converged
     c_bands:  1 eigenvalues not converged
     ethr =  8.28E-06,  avg # of iterations = 16.6

     negative rho (up, down):  1.343E-03 0.000E+00

     total cpu time spent up to now is       72.7 secs

     total energy              =     -57.98420984 Ry
     estimated scf accuracy    <       0.00033108 Ry

     iteration # 18     ecut=    50.00 Ry     beta= 0.70
     Davidson diagonalization with overlap
     c_bands:  2 eigenvalues not converged
     c_bands:  1 eigenvalues not converged
     c_bands:  2 eigenvalues not converged
     c_bands:  2 eigenvalues not converged
     c_bands:  1 eigenvalues not converged
     c_bands:  1 eigenvalues not converged
     c_bands:  1 eigenvalues not converged
     ethr =  1.03E-06,  avg # of iterations = 15.7

     negative rho (up, down):  1.186E-03 0.000E+00

     total cpu time spent up to now is       82.3 secs

     total energy              =     -57.98465264 Ry
     estimated scf accuracy    <       0.00128724 Ry

     iteration # 19     ecut=    50.00 Ry     beta= 0.70
     Davidson diagonalization with overlap
     c_bands:  1 eigenvalues not converged
     c_bands:  1 eigenvalues not converged
     ethr =  1.03E-06,  avg # of iterations =  5.1

     negative rho (up, down):  8.751E-04 0.000E+00

     total cpu time spent up to now is       85.3 secs

     total energy              =     -57.98405523 Ry
     estimated scf accuracy    <       0.00098081 Ry

     iteration # 20     ecut=    50.00 Ry     beta= 0.70
     Davidson diagonalization with overlap
     c_bands:  1 eigenvalues not converged
     ethr =  1.03E-06,  avg # of iterations =  8.7

     negative rho (up, down):  1.107E-03 0.000E+00

     total cpu time spent up to now is       90.4 secs

     total energy              =     -57.98433469 Ry
     estimated scf accuracy    <       0.00044570 Ry

     iteration # 21     ecut=    50.00 Ry     beta= 0.70
     Davidson diagonalization with overlap
     ethr =  1.03E-06,  avg # of iterations =  1.8

     negative rho (up, down):  1.229E-03 0.000E+00

     total cpu time spent up to now is       92.1 secs

     total energy              =     -57.98431823 Ry
     estimated scf accuracy    <       0.00008800 Ry

     iteration # 22     ecut=    50.00 Ry     beta= 0.70
     Davidson diagonalization with overlap
     ethr =  2.75E-07,  avg # of iterations =  5.0

     negative rho (up, down):  1.254E-03 0.000E+00

     total cpu time spent up to now is       95.1 secs

     total energy              =     -57.98434194 Ry
     estimated scf accuracy    <       0.00000150 Ry

     iteration # 23     ecut=    50.00 Ry     beta= 0.70
     Davidson diagonalization with overlap
     ethr =  4.69E-09,  avg # of iterations = 15.6

     negative rho (up, down):  1.259E-03 0.000E+00

     total cpu time spent up to now is      105.3 secs

     total energy              =     -57.98435285 Ry
     estimated scf accuracy    <       0.00000056 Ry

     iteration # 24     ecut=    50.00 Ry     beta= 0.70
     Davidson diagonalization with overlap
     c_bands:  1 eigenvalues not converged
     ethr =  1.76E-09,  avg # of iterations =  5.6

     negative rho (up, down):  1.266E-03 0.000E+00

     total cpu time spent up to now is      108.1 secs

     total energy              =     -57.98435295 Ry
     estimated scf accuracy    <       0.00000029 Ry

     iteration # 25     ecut=    50.00 Ry     beta= 0.70
     Davidson diagonalization with overlap
     ethr =  8.99E-10,  avg # of iterations =  5.8

     negative rho (up, down):  1.268E-03 0.000E+00

     total cpu time spent up to now is      111.5 secs

     total energy              =     -57.98435302 Ry
     estimated scf accuracy    <       0.00000008 Ry

     iteration # 26     ecut=    50.00 Ry     beta= 0.70
     Davidson diagonalization with overlap
     ethr =  2.61E-10,  avg # of iterations =  5.2

     negative rho (up, down):  1.267E-03 0.000E+00

     total cpu time spent up to now is      114.7 secs

     total energy              =     -57.98435304 Ry
     estimated scf accuracy    <       0.00000002 Ry

     iteration # 27     ecut=    50.00 Ry     beta= 0.70
     Davidson diagonalization with overlap
     ethr =  7.64E-11,  avg # of iterations =  4.9

     negative rho (up, down):  1.267E-03 0.000E+00

     total cpu time spent up to now is      117.8 secs

     End of self-consistent calculation

          k = 0.0000 0.0000 0.0000 (  3135 PWs)   bands (ev):

   -34.8612 -24.5025 -24.0385 -24.0385 -23.6866 -23.6866 -14.4374 -10.4053
   -10.4053  -8.6753  -1.7356  -0.3123   0.2810   0.2810   4.9115   7.4319
     7.7399   8.0425   8.4698   9.0610

          k = 0.0000 0.0962 0.0000 (  3173 PWs)   bands (ev):

   -34.8376 -26.1668 -25.8963 -24.2693 -21.5969 -21.3924 -14.3055 -10.6073
   -10.5886  -8.7749  -2.4359  -0.5511   0.8518   1.5848   4.7968   7.3242
     7.8943   8.0140   8.1183   8.2512

          k = 0.0000 0.1925 0.0000 (  3183 PWs)   bands (ev):

   -34.7627 -28.0903 -27.6076 -23.8356 -19.2853 -18.7628 -14.0265 -11.3185
   -10.9494  -8.5740  -2.7734  -1.1911   2.2616   2.8504   4.3286   6.6674
     7.3238   8.0681   8.5159   8.8532

          k = 0.0000 0.2887 0.0000 (  3177 PWs)   bands (ev):

   -34.6333 -29.6843 -28.9667 -23.1259 -17.3253 -16.3289 -14.2376 -11.6243
   -10.8076  -7.8555  -2.4951  -1.9677   2.0815   3.4423   3.8288   5.9189
     6.9739   7.6553   9.2704   9.8251

          k = 0.0000 0.3849 0.0000 (  3189 PWs)   bands (ev):

   -34.4479 -30.9246 -29.9513 -22.1741 -16.2759 -16.2620 -13.3844 -10.8134
    -9.5801  -6.7775  -3.0419  -1.5843   0.8243   2.8000   2.9968   5.0210
     6.1619   7.4684   8.2455  11.1588

          k = 0.0000 0.4811 0.0000 (  3207 PWs)   bands (ev):

   -34.2396 -31.7687 -30.5467 -21.0455 -17.7194 -16.0003 -11.7074 -10.0700
    -7.6799  -5.3886  -3.8130  -1.1144   0.5288   1.2799   1.7637   4.0709
     4.6787   6.0476   9.5342  13.1035

          k = 0.0000-0.5774 0.0000 (  3208 PWs)   bands (ev):

   -34.1301 -32.0899 -30.7460 -20.2052 -18.7044 -15.9699 -10.7982 -10.0722
    -6.6242  -4.4267  -4.2315  -0.5056  -0.4932   0.3935   2.1166   3.1586
     3.9128   5.6942   9.8560  14.4114

          k = 0.0833 0.1443 0.0000 (  3191 PWs)   bands (ev):

   -34.7885 -27.6318 -27.1513 -23.9919 -19.8448 -19.5132 -14.0823 -11.3417
   -10.5865  -8.7379  -2.7817  -0.9931   1.9113   2.6670   4.4824   7.0031
     7.1433   8.0879   8.3285   8.6625

          k = 0.0833 0.2406 0.0000 (  3176 PWs)   bands (ev):

   -34.6851 -29.2039 -28.4801 -23.4264 -17.8181 -17.2237 -13.9077 -12.2452
   -10.4028  -8.3063  -2.6597  -1.7438   2.7060   3.4841   3.7920   6.2026
     6.5250   8.0564   9.0310   9.4649

          k = 0.0833 0.3368 0.0000 (  3174 PWs)   bands (ev):

   -34.5238 -30.5403 -29.5597 -22.6022 -16.4342 -15.8569 -13.9308 -11.8676
    -9.5588  -7.4308  -2.7145  -1.9621   1.4084   3.1214   3.8696   5.3620
     6.1805   7.6643   8.3008  10.4943

          k = 0.0833 0.4330 0.0000 (  3188 PWs)   bands (ev):

   -34.3134 -31.5536 -30.3032 -21.5722 -16.9985 -15.9031 -12.4811 -10.5958
    -8.1271  -6.0730  -3.5590  -1.2424   0.3684   2.1189   2.8186   4.3966
     4.7340   6.3436   9.4666  12.1248

          k = 0.0833 0.5292 0.0000 (  3187 PWs)   bands (ev):

   -34.1231 -32.1491 -30.6800 -20.5060 -18.2778 -15.8866 -11.1612 -10.0579
    -6.6873  -4.5751  -4.2256  -0.8465   0.0558   0.7550   2.3333   3.1860
     3.8051   5.2122  10.4857  13.9952

          k = 0.1667 0.2887 0.0000 (  3165 PWs)   bands (ev):

   -34.5485 -30.4226 -29.3736 -22.7627 -16.2425 -16.1248 -13.6656 -12.7162
    -9.1477  -7.8897  -2.5156  -2.2452   2.2384   2.4408   4.8385   5.2219
     6.2136   7.2160   8.4073  10.3033

          k = 0.1667 0.3849 0.0000 (  3167 PWs)   bands (ev):

   -34.3489 -31.4782 -30.0996 -21.8846 -16.5253 -15.6074 -13.0387 -11.4385
    -7.6585  -6.8597  -3.3130  -1.5359   0.8042   1.8958   3.6514   4.2685
     5.8013   6.5646   8.4586  11.6111

          k = 0.1667 0.4811 0.0000 (  3169 PWs)   bands (ev):

   -34.1086 -32.2551 -30.5617 -20.9144 -17.5359 -15.7531 -11.7991 -10.2836
    -6.6566  -4.7500  -4.0787  -0.8236  -0.1001   1.0445   2.5861   3.1575
     4.3201   5.2410  10.5798  12.9346

          k = 0.1667 0.5774 0.0000 (  3186 PWs)   bands (ev):

   -33.9675 -32.5780 -30.7195 -20.3322 -18.1604 -15.8592 -11.0658 -10.1327
    -5.7925  -4.7563  -3.4527  -0.5105  -0.1437   0.4250   1.4348   3.0471
     3.8811   4.4968  11.7010  13.4459

          k = 0.2500 0.4330 0.0000 (  3157 PWs)   bands (ev):

   -34.1009 -32.3038 -30.5067 -21.0761 -17.1366 -15.7300 -12.1063 -10.4827
    -6.4827  -5.0343  -3.7695  -0.9479  -0.1106   0.9995   2.2914   3.2444
     4.4128   6.6376   9.2907  12.9485

          k = 0.2500 0.5292 0.0000 (  3158 PWs)   bands (ev):

   -33.8162 -32.8939 -30.7232 -20.4469 -17.5203 -16.1464 -11.1536 -10.2010
    -5.4318  -4.4225  -2.8666  -0.7818  -0.4568   0.5210   1.2763   2.3228
     2.7911   6.7659  10.8908  12.9205

          k = 0.3333 0.5774 0.0000 (  3171 PWs)   bands (ev):

   -33.4167 -33.4167 -30.7783 -20.3158 -16.9033 -16.9033 -10.5452 -10.5451
    -4.5893  -4.5893  -2.2669  -1.1891   0.3890   0.6067   0.6067   1.6329
     1.6330   8.1052  11.2641  11.2641

     the Fermi energy is     4.7389 ev

!    total energy              =     -57.98435305 Ry
     estimated scf accuracy    <          6.1E-10 Ry
     smearing contrib. (-TS)   =       0.00103986 Ry
     internal energy E=F+TS    =     -57.98539291 Ry

     The total energy is F=E-TS. E is the sum of the following terms:
     one-electron contribution =   -2233.30601078 Ry
     hartree contribution      =    1128.54735711 Ry
     xc contribution           =     -44.15091937 Ry
     ewald contribution        =    1090.92418012 Ry

     convergence has been achieved in  27 iterations

     negative rho (up, down):  1.267E-03 0.000E+00

     Forces acting on atoms (cartesian axes, Ry/au):

     atom    1 type  1   force =     0.00000000   -0.00000000  -24.26767055
     atom    2 type  1   force =     0.00000000    0.00000000   -2.44237293
     atom    3 type  1   force =     0.00000000    0.00000000  -23.62451092
     atom    4 type  1   force =     0.00000000    0.00000000   21.48516596
     atom    5 type  1   force =     0.00000000    0.00000000  -21.48514647
     atom    6 type  1   force =     0.00000000    0.00000000   23.62451040
     atom    7 type  1   force =     0.00000000   -0.00000000    2.44235649
     atom    8 type  1   force =     0.00000000    0.00000000   24.26766803

     Total force =    56.826303     Total SCF correction =     0.000028


     Computing stress (Cartesian axis) and pressure


     negative rho (up, down):  1.267E-03 0.000E+00
          total   stress  (Ry/bohr**3)                   (kbar)     P=     9891.30
   0.02847329   0.00000000   0.00000000         4188.57        0.00        0.00
   0.00000000   0.02847329   0.00000000            0.00     4188.57        0.00
   0.00000000   0.00000000   0.14477239            0.00        0.00    21296.75


     Writing all to output data dir /run/media/rfa/SATA/Skripsi/DFT/Graphene-copy/tmp/gr-abc-4L.save/ :
     XML data file, charge density, pseudopotentials, collected wavefunctions

     init_run     :      1.42s CPU      1.42s WALL (       1 calls)
     electrons    :    154.04s CPU    116.22s WALL (       1 calls)
     forces       :      0.57s CPU      0.40s WALL (       1 calls)
     stress       :      2.49s CPU      1.88s WALL (       1 calls)

     Called by init_run:
     wfcinit      :      1.04s CPU      0.85s WALL (       1 calls)
     potinit      :      0.01s CPU      0.02s WALL (       1 calls)
     hinit0       :      0.25s CPU      0.43s WALL (       1 calls)

     Called by electrons:
     c_bands      :    141.89s CPU    106.59s WALL (      27 calls)
     sum_band     :     10.73s CPU      8.27s WALL (      27 calls)
     v_of_rho     :      0.32s CPU      0.34s WALL (      28 calls)
     newd         :      0.97s CPU      0.92s WALL (      28 calls)
     mix_rho      :      0.14s CPU      0.10s WALL (      27 calls)

     Called by c_bands:
     init_us_2    :      0.59s CPU      0.52s WALL (    1083 calls)
     cegterg      :    137.42s CPU    103.43s WALL (     513 calls)

     Called by *egterg:
     cdiaghg      :      9.85s CPU      7.93s WALL (    3966 calls)
     h_psi        :     68.10s CPU     52.24s WALL (    3985 calls)
     s_psi        :      2.66s CPU      2.31s WALL (    3985 calls)
     g_psi        :      0.23s CPU      0.16s WALL (    3453 calls)

     Called by h_psi:
     h_psi:calbec :     31.35s CPU     23.35s WALL (    3985 calls)
     vloc_psi     :     32.88s CPU     25.29s WALL (    3985 calls)
     add_vuspsi   :      3.58s CPU      3.38s WALL (    3985 calls)

     General routines
     calbec       :     39.49s CPU     29.62s WALL (    4821 calls)
     fft          :      0.40s CPU      0.59s WALL (     333 calls)
     ffts         :      0.02s CPU      0.02s WALL (      27 calls)
     fftw         :     33.85s CPU     26.09s WALL (   91726 calls)

     Parallel routines

     PWSCF        :   2m38.71s CPU   2m 0.46s WALL


   This run was terminated on:  15:33:14  16Apr2025            

=------------------------------------------------------------------------------=
   JOB DONE.
=------------------------------------------------------------------------------=
