
     Program PWSCF v.7.4.1 starts on 16Apr2025 at 15:37:46 

     This program is part of the open-source Quantum ESPRESSO suite
     for quantum simulation of materials; please cite
         "P. Giannozzi et al., J. Phys.:Condens. Matter 21 395502 (2009);
         "P. Giannozzi et al., J. Phys.:Condens. Matter 29 465901 (2017);
         "P. Giannozzi et al., J. Chem. Phys. 152 154105 (2020);
          URL http://www.quantum-espresso.org", 
     in publications or presentations arising from this work. More details at
     http://www.quantum-espresso.org/quote

     Parallel version (MPI), running on     7 processors

     MPI processes distributed on     1 nodes
     14416 MiB available memory on the printing compute node when the environment starts

     Waiting for input...
     Reading input from standard input

     Current dimensions of program PWSCF are:
     Max number of different atomic species (ntypx) = 10
     Max number of k-points (npk) =  40000
     Max angular momentum in pseudopotentials (lmaxx) =  4

     R & G space division:  proc/nbgrp/npool/nimage =       7
     Subspace diagonalization in iterative solution of the eigenvalue problem:
     a serial algorithm will be used


     Parallelization info
     --------------------
     sticks:   dense  smooth     PW     G-vecs:    dense   smooth      PW
     Min          54      54     17                 5366     5366     925
     Max          55      55     18                 5395     5395     942
     Sum         379     379    121                37615    37615    6525

     Using Slab Decomposition



     bravais-lattice index     =            4
     lattice parameter (alat)  =       4.6561  a.u.
     unit-cell volume          =     532.1899 (a.u.)^3
     number of atoms/cell      =            8
     number of atomic types    =            1
     number of electrons       =        32.00
     number of Kohn-Sham states=           20
     kinetic-energy cutoff     =      65.0000  Ry
     charge density cutoff     =     260.0000  Ry
     scf convergence threshold =      1.0E-08
     mixing beta               =       0.7000
     number of iterations used =            8  plain     mixing
     Exchange-correlation= PBE
                           (   1   4   3   4   0   0   0)

     celldm(1)=   4.656107  celldm(2)=   0.000000  celldm(3)=   6.087896
     celldm(4)=   0.000000  celldm(5)=   0.000000  celldm(6)=   0.000000

     crystal axes: (cart. coord. in units of alat)
               a(1) = (   1.000000   0.000000   0.000000 )  
               a(2) = (  -0.500000   0.866025   0.000000 )  
               a(3) = (   0.000000   0.000000   6.087896 )  

     reciprocal axes: (cart. coord. in units 2 pi/alat)
               b(1) = (  1.000000  0.577350 -0.000000 )  
               b(2) = (  0.000000  1.154701  0.000000 )  
               b(3) = (  0.000000 -0.000000  0.164260 )  


     PseudoPot. # 1 for C  read from file:
     /run/media/rfa/SATA/Skripsi/DFT/Graphene-copy/pseudo/C.pbe-n-rrkjus_psl.0.1.UPF
     MD5 check sum: 96a6a315177d77e6c95bf6fd3870f9e3
     Pseudo is Ultrasoft + core correction, Zval =  4.0
     Generated using &quot;atomic&quot; code by A. Dal Corso  v.6.3MaX
     Using radial grid of 1073 points,  4 beta functions with: 
                l(1) =   0
                l(2) =   0
                l(3) =   1
                l(4) =   1
     Q(r) pseudized with 0 coefficients 


     atomic species   valence    mass     pseudopotential
     C                 4.00    12.01070     C ( 1.00)

      6 Sym. Ops. (no inversion) found



   Cartesian axes

     site n.     atom                  positions (alat units)
         1        C      tau(   1) = (   0.0000000   0.5773503   3.0439478  )
         2        C      tau(   2) = (   0.5000000   0.2886751   3.0439478  )
         3        C      tau(   3) = (   0.0000000   0.0000000   3.2468777  )
         4        C      tau(   4) = (   0.0000000   0.5773503   3.2468777  )
         5        C      tau(   5) = (   0.5000000   0.2886751   3.4498075  )
         6        C      tau(   6) = (   0.0000000   0.0000000   3.4498075  )
         7        C      tau(   7) = (   0.0000000   0.5773503   3.6527374  )
         8        C      tau(   8) = (   0.5000000   0.2886751   3.6527374  )

     number of k points=    19  Marzari-Vanderbilt smearing, width (Ry)=  0.0200
                       cart. coord. in units 2pi/alat
        k(    1) = (   0.0000000   0.0000000   0.0000000), wk =   0.0138889
        k(    2) = (   0.0000000   0.0962250   0.0000000), wk =   0.0833333
        k(    3) = (   0.0000000   0.1924501   0.0000000), wk =   0.0833333
        k(    4) = (   0.0000000   0.2886751   0.0000000), wk =   0.0833333
        k(    5) = (   0.0000000   0.3849002   0.0000000), wk =   0.0833333
        k(    6) = (   0.0000000   0.4811252   0.0000000), wk =   0.0833333
        k(    7) = (   0.0000000  -0.5773503   0.0000000), wk =   0.0416667
        k(    8) = (   0.0833333   0.1443376   0.0000000), wk =   0.0833333
        k(    9) = (   0.0833333   0.2405626   0.0000000), wk =   0.1666667
        k(   10) = (   0.0833333   0.3367877   0.0000000), wk =   0.1666667
        k(   11) = (   0.0833333   0.4330127   0.0000000), wk =   0.1666667
        k(   12) = (   0.0833333   0.5292377   0.0000000), wk =   0.1666667
        k(   13) = (   0.1666667   0.2886751   0.0000000), wk =   0.0833333
        k(   14) = (   0.1666667   0.3849002   0.0000000), wk =   0.1666667
        k(   15) = (   0.1666667   0.4811252   0.0000000), wk =   0.1666667
        k(   16) = (   0.1666667   0.5773503   0.0000000), wk =   0.0833333
        k(   17) = (   0.2500000   0.4330127   0.0000000), wk =   0.0833333
        k(   18) = (   0.2500000   0.5292377   0.0000000), wk =   0.1666667
        k(   19) = (   0.3333333   0.5773503   0.0000000), wk =   0.0277778

     Dense  grid:    37615 G-vectors     FFT dimensions: (  24,  24, 150)

     Estimated max dynamical RAM per process >      13.61 MB

     Estimated total dynamical RAM >      95.25 MB

     Check: negative core charge=   -0.000006

     Initial potential from superposition of free atoms

     starting charge      31.9997, renormalised to      32.0000

     negative rho (up, down):  1.605E-05 0.000E+00
     Starting wfcs are   32 randomized atomic wfcs

     total cpu time spent up to now is        2.2 secs

     per-process dynamical memory:    15.1 Mb

     Self-consistent Calculation

     iteration #  1     ecut=    65.00 Ry     beta= 0.70
     Davidson diagonalization with overlap
     ethr =  1.00E-02,  avg # of iterations =  8.8

     negative rho (up, down):  5.166E-04 0.000E+00

     total cpu time spent up to now is       10.3 secs

     total energy              =     -50.28774547 Ry
     estimated scf accuracy    <      18.17874998 Ry

     iteration #  2     ecut=    65.00 Ry     beta= 0.70
     Davidson diagonalization with overlap
     c_bands:  3 eigenvalues not converged
     c_bands:  2 eigenvalues not converged
     c_bands:  4 eigenvalues not converged
     c_bands:  4 eigenvalues not converged
     c_bands:  1 eigenvalues not converged
     ethr =  1.00E-02,  avg # of iterations = 17.6

     total cpu time spent up to now is       25.1 secs

     total energy              =     -35.51784417 Ry
     estimated scf accuracy    <      97.29625774 Ry

     iteration #  3     ecut=    65.00 Ry     beta= 0.70
     Davidson diagonalization with overlap
     c_bands:  3 eigenvalues not converged
     c_bands:  1 eigenvalues not converged
     c_bands:  3 eigenvalues not converged
     c_bands:  2 eigenvalues not converged
     ethr =  1.00E-02,  avg # of iterations = 13.6

     total cpu time spent up to now is       34.7 secs

     total energy              =     -57.87324888 Ry
     estimated scf accuracy    <       3.20092023 Ry

     iteration #  4     ecut=    65.00 Ry     beta= 0.70
     Davidson diagonalization with overlap
     ethr =  1.00E-02,  avg # of iterations =  3.3

     total cpu time spent up to now is       37.8 secs

     total energy              =     -58.03988716 Ry
     estimated scf accuracy    <       1.32617129 Ry

     iteration #  5     ecut=    65.00 Ry     beta= 0.70
     Davidson diagonalization with overlap
     ethr =  4.14E-03,  avg # of iterations =  5.1

     total cpu time spent up to now is       41.2 secs

     total energy              =     -58.07419378 Ry
     estimated scf accuracy    <       1.81905641 Ry

     iteration #  6     ecut=    65.00 Ry     beta= 0.70
     Davidson diagonalization with overlap
     ethr =  4.14E-03,  avg # of iterations =  1.3

     total cpu time spent up to now is       43.3 secs

     total energy              =     -58.06081506 Ry
     estimated scf accuracy    <       0.96477165 Ry

     iteration #  7     ecut=    65.00 Ry     beta= 0.70
     Davidson diagonalization with overlap
     ethr =  3.01E-03,  avg # of iterations =  1.2

     total cpu time spent up to now is       45.5 secs

     total energy              =     -58.04075138 Ry
     estimated scf accuracy    <       0.48193009 Ry

     iteration #  8     ecut=    65.00 Ry     beta= 0.70
     Davidson diagonalization with overlap
     ethr =  1.51E-03,  avg # of iterations =  4.1

     total cpu time spent up to now is       48.5 secs

     total energy              =     -58.08276770 Ry
     estimated scf accuracy    <       0.33951269 Ry

     iteration #  9     ecut=    65.00 Ry     beta= 0.70
     Davidson diagonalization with overlap
     ethr =  1.06E-03,  avg # of iterations =  2.0

     total cpu time spent up to now is       51.7 secs

     total energy              =     -58.12982307 Ry
     estimated scf accuracy    <       0.29421812 Ry

     iteration # 10     ecut=    65.00 Ry     beta= 0.70
     Davidson diagonalization with overlap
     ethr =  9.19E-04,  avg # of iterations =  1.1

     total cpu time spent up to now is       54.3 secs

     total energy              =     -57.91691436 Ry
     estimated scf accuracy    <       0.31541376 Ry

     iteration # 11     ecut=    65.00 Ry     beta= 0.70
     Davidson diagonalization with overlap
     ethr =  9.19E-04,  avg # of iterations =  8.0

     negative rho (up, down):  3.376E-04 0.000E+00

     total cpu time spent up to now is       59.3 secs

     total energy              =     -58.04452437 Ry
     estimated scf accuracy    <       0.02430022 Ry

     iteration # 12     ecut=    65.00 Ry     beta= 0.70
     Davidson diagonalization with overlap
     c_bands:  2 eigenvalues not converged
     c_bands:  4 eigenvalues not converged
     c_bands:  3 eigenvalues not converged
     c_bands:  3 eigenvalues not converged
     c_bands:  3 eigenvalues not converged
     c_bands:  1 eigenvalues not converged
     c_bands:  1 eigenvalues not converged
     c_bands:  1 eigenvalues not converged
     c_bands:  1 eigenvalues not converged
     ethr =  7.59E-05,  avg # of iterations = 18.5

     negative rho (up, down):  3.733E-02 0.000E+00

     total cpu time spent up to now is       71.6 secs

     total energy              =     -58.14933192 Ry
     estimated scf accuracy    <       0.13951572 Ry

     iteration # 13     ecut=    65.00 Ry     beta= 0.70
     Davidson diagonalization with overlap
     c_bands:  2 eigenvalues not converged
     c_bands:  2 eigenvalues not converged
     c_bands:  2 eigenvalues not converged
     c_bands:  1 eigenvalues not converged
     c_bands:  1 eigenvalues not converged
     c_bands:  2 eigenvalues not converged
     c_bands:  3 eigenvalues not converged
     c_bands:  1 eigenvalues not converged
     c_bands:  4 eigenvalues not converged
     c_bands:  1 eigenvalues not converged
     ethr =  7.59E-05,  avg # of iterations = 16.6

     negative rho (up, down):  1.199E-06 0.000E+00

     total cpu time spent up to now is       81.3 secs

     total energy              =     -57.89460623 Ry
     estimated scf accuracy    <       3.08699229 Ry

     iteration # 14     ecut=    65.00 Ry     beta= 0.70
     Davidson diagonalization with overlap
     c_bands:  3 eigenvalues not converged
     c_bands:  1 eigenvalues not converged
     c_bands:  2 eigenvalues not converged
     c_bands:  2 eigenvalues not converged
     c_bands:  1 eigenvalues not converged
     ethr =  7.59E-05,  avg # of iterations = 15.6

     total cpu time spent up to now is       89.0 secs

     total energy              =     -58.06038650 Ry
     estimated scf accuracy    <       0.15662034 Ry

     iteration # 15     ecut=    65.00 Ry     beta= 0.70
     Davidson diagonalization with overlap
     c_bands:  1 eigenvalues not converged
     ethr =  7.59E-05,  avg # of iterations =  7.3

     negative rho (up, down):  2.377E-02 0.000E+00

     total cpu time spent up to now is       94.4 secs

     total energy              =     -58.06111939 Ry
     estimated scf accuracy    <       0.06424468 Ry

     iteration # 16     ecut=    65.00 Ry     beta= 0.70
     Davidson diagonalization with overlap
     c_bands:  1 eigenvalues not converged
     ethr =  7.59E-05,  avg # of iterations = 11.0

     negative rho (up, down):  1.963E-02 0.000E+00

     total cpu time spent up to now is      101.8 secs

     total energy              =     -58.06628432 Ry
     estimated scf accuracy    <       0.06051327 Ry

     iteration # 17     ecut=    65.00 Ry     beta= 0.70
     Davidson diagonalization with overlap
     ethr =  7.59E-05,  avg # of iterations =  1.6

     negative rho (up, down):  6.514E-03 0.000E+00

     total cpu time spent up to now is      104.0 secs

     total energy              =     -58.06292320 Ry
     estimated scf accuracy    <       0.03567533 Ry

     iteration # 18     ecut=    65.00 Ry     beta= 0.70
     Davidson diagonalization with overlap
     c_bands:  2 eigenvalues not converged
     c_bands:  1 eigenvalues not converged
     ethr =  7.59E-05,  avg # of iterations =  9.3

     total cpu time spent up to now is      108.0 secs

     total energy              =     -58.05593348 Ry
     estimated scf accuracy    <       0.02546065 Ry

     iteration # 19     ecut=    65.00 Ry     beta= 0.70
     Davidson diagonalization with overlap
     c_bands:  4 eigenvalues not converged
     c_bands:  3 eigenvalues not converged
     c_bands:  1 eigenvalues not converged
     c_bands:  2 eigenvalues not converged
     c_bands:  2 eigenvalues not converged
     c_bands:  1 eigenvalues not converged
     c_bands:  1 eigenvalues not converged
     c_bands:  1 eigenvalues not converged
     c_bands:  2 eigenvalues not converged
     c_bands:  1 eigenvalues not converged
     c_bands:  1 eigenvalues not converged
     c_bands:  1 eigenvalues not converged
     c_bands:  1 eigenvalues not converged
     c_bands:  1 eigenvalues not converged
     ethr =  7.59E-05,  avg # of iterations = 18.8

     total cpu time spent up to now is      117.2 secs

     total energy              =     -58.05754967 Ry
     estimated scf accuracy    <       0.02899238 Ry

     iteration # 20     ecut=    65.00 Ry     beta= 0.70
     Davidson diagonalization with overlap
     ethr =  7.59E-05,  avg # of iterations =  9.3

     total cpu time spent up to now is      122.2 secs

     total energy              =     -58.05793141 Ry
     estimated scf accuracy    <       0.00532873 Ry

     iteration # 21     ecut=    65.00 Ry     beta= 0.70
     Davidson diagonalization with overlap
     ethr =  1.67E-05,  avg # of iterations =  9.9

     total cpu time spent up to now is      127.8 secs

     total energy              =     -58.05876825 Ry
     estimated scf accuracy    <       0.00156726 Ry

     iteration # 22     ecut=    65.00 Ry     beta= 0.70
     Davidson diagonalization with overlap
     ethr =  4.90E-06,  avg # of iterations = 10.7

     negative rho (up, down):  3.332E-05 0.000E+00

     total cpu time spent up to now is      133.9 secs

     total energy              =     -58.05896980 Ry
     estimated scf accuracy    <       0.00065990 Ry

     iteration # 23     ecut=    65.00 Ry     beta= 0.70
     Davidson diagonalization with overlap
     c_bands:  2 eigenvalues not converged
     ethr =  2.06E-06,  avg # of iterations = 12.9

     negative rho (up, down):  5.846E-05 0.000E+00

     total cpu time spent up to now is      139.9 secs

     total energy              =     -58.05917622 Ry
     estimated scf accuracy    <       0.00041711 Ry

     iteration # 24     ecut=    65.00 Ry     beta= 0.70
     Davidson diagonalization with overlap
     ethr =  1.30E-06,  avg # of iterations =  2.5

     negative rho (up, down):  9.598E-05 0.000E+00

     total cpu time spent up to now is      143.2 secs

     total energy              =     -58.05925285 Ry
     estimated scf accuracy    <       0.00007174 Ry

     iteration # 25     ecut=    65.00 Ry     beta= 0.70
     Davidson diagonalization with overlap
     ethr =  2.24E-07,  avg # of iterations =  6.2

     negative rho (up, down):  5.237E-04 0.000E+00

     total cpu time spent up to now is      148.3 secs

     total energy              =     -58.05928755 Ry
     estimated scf accuracy    <       0.00005814 Ry

     iteration # 26     ecut=    65.00 Ry     beta= 0.70
     Davidson diagonalization with overlap
     ethr =  1.82E-07,  avg # of iterations =  3.5

     negative rho (up, down):  6.426E-04 0.000E+00

     total cpu time spent up to now is      151.2 secs

     total energy              =     -58.05929426 Ry
     estimated scf accuracy    <       0.00001638 Ry

     iteration # 27     ecut=    65.00 Ry     beta= 0.70
     Davidson diagonalization with overlap
     ethr =  5.12E-08,  avg # of iterations =  5.6

     negative rho (up, down):  6.404E-04 0.000E+00

     total cpu time spent up to now is      155.6 secs

     total energy              =     -58.05930206 Ry
     estimated scf accuracy    <       0.00000583 Ry

     iteration # 28     ecut=    65.00 Ry     beta= 0.70
     Davidson diagonalization with overlap
     ethr =  1.82E-08,  avg # of iterations =  5.1

     negative rho (up, down):  6.484E-04 0.000E+00

     total cpu time spent up to now is      160.0 secs

     total energy              =     -58.05930380 Ry
     estimated scf accuracy    <       0.00000385 Ry

     iteration # 29     ecut=    65.00 Ry     beta= 0.70
     Davidson diagonalization with overlap
     ethr =  1.20E-08,  avg # of iterations =  2.2

     negative rho (up, down):  6.588E-04 0.000E+00

     total cpu time spent up to now is      162.6 secs

     total energy              =     -58.05930350 Ry
     estimated scf accuracy    <       0.00000246 Ry

     iteration # 30     ecut=    65.00 Ry     beta= 0.70
     Davidson diagonalization with overlap
     ethr =  7.70E-09,  avg # of iterations =  3.2

     negative rho (up, down):  6.704E-04 0.000E+00

     total cpu time spent up to now is      165.4 secs

     total energy              =     -58.05930334 Ry
     estimated scf accuracy    <       0.00000108 Ry

     iteration # 31     ecut=    65.00 Ry     beta= 0.70
     Davidson diagonalization with overlap
     ethr =  3.38E-09,  avg # of iterations =  5.8

     negative rho (up, down):  6.663E-04 0.000E+00

     total cpu time spent up to now is      170.2 secs

     total energy              =     -58.05930404 Ry
     estimated scf accuracy    <       0.00000002 Ry

     iteration # 32     ecut=    65.00 Ry     beta= 0.70
     Davidson diagonalization with overlap
     c_bands:  2 eigenvalues not converged
     ethr =  5.87E-11,  avg # of iterations = 20.5

     negative rho (up, down):  6.662E-04 0.000E+00

     total cpu time spent up to now is      188.7 secs

     End of self-consistent calculation

          k = 0.0000 0.0000 0.0000 (  4651 PWs)   bands (ev):

   -34.8538 -24.5091 -24.0084 -24.0084 -23.6633 -23.6633 -14.4810 -10.3831
   -10.3831  -8.6935  -1.8268  -0.2846   0.2999   0.2999   4.9566   7.3723
     7.6672   7.9831   8.4791   8.4792

          k = 0.0000 0.0962 0.0000 (  4651 PWs)   bands (ev):

   -34.8297 -26.1449 -25.8691 -24.2671 -21.5695 -21.3665 -14.3454 -10.5847
   -10.5672  -8.7934  -2.4921  -0.5241   0.8709   1.5821   4.8425   7.2726
     7.8394   8.0064   8.1287   8.1938

          k = 0.0000 0.1925 0.0000 (  4667 PWs)   bands (ev):

   -34.7551 -28.0686 -27.5801 -23.8339 -19.2570 -18.7374 -14.0644 -11.3156
   -10.9270  -8.5861  -2.8127  -1.1684   2.2802   2.8424   4.3692   6.6838
     7.3361   8.0123   8.4495   8.7998

          k = 0.0000 0.2887 0.0000 (  4686 PWs)   bands (ev):

   -34.6247 -29.6640 -28.9399 -23.1249 -17.2954 -16.3029 -14.2637 -11.6484
   -10.7866  -7.8601  -2.5145  -1.9566   2.0823   3.4588   3.8497   5.9491
     6.9881   7.6309   9.2322   9.7876

          k = 0.0000 0.3849 0.0000 (  4690 PWs)   bands (ev):

   -34.4388 -30.9055 -29.9240 -22.1726 -16.2556 -16.2453 -13.4016 -10.8448
    -9.5595  -6.7739  -3.0270  -1.5946   0.8290   2.8150   2.9975   5.0446
     6.1577   7.4823   8.2608  11.0977

          k = 0.0000 0.4811 0.0000 (  4700 PWs)   bands (ev):

   -34.2295 -31.7508 -30.5192 -21.0431 -17.7215 -15.9694 -11.7388 -10.0940
    -7.6573  -5.3760  -3.7960  -1.0987   0.5420   1.2952   1.7360   4.0815
     4.6810   6.0752   9.5497  13.0481

          k = 0.0000-0.5774 0.0000 (  4724 PWs)   bands (ev):

   -34.1199 -32.0728 -30.7182 -20.2010 -18.7110 -15.9392 -10.8557 -10.0752
    -6.6017  -4.4176  -4.2045  -0.4959  -0.4595   0.4078   2.0737   3.1426
     3.9381   5.7229   9.8719  14.8618

          k = 0.0833 0.1443 0.0000 (  4666 PWs)   bands (ev):

   -34.7802 -27.6094 -27.1244 -23.9897 -19.8172 -19.4864 -14.1186 -11.3294
   -10.5640  -8.7529  -2.8207  -0.9688   1.9311   2.6601   4.5265   6.9820
     7.1675   8.0575   8.2606   8.6074

          k = 0.0833 0.2406 0.0000 (  4682 PWs)   bands (ev):

   -34.6770 -29.1829 -28.4539 -23.4248 -17.7902 -17.1970 -13.9401 -12.2494
   -10.3872  -8.3170  -2.6904  -1.7233   2.6983   3.5044   3.8230   6.2274
     6.5425   8.0061   8.9716   9.4198

          k = 0.0833 0.3368 0.0000 (  4711 PWs)   bands (ev):

   -34.5153 -30.5205 -29.5335 -22.6009 -16.4060 -15.8366 -13.9576 -11.8847
    -9.5494  -7.4334  -2.7008  -1.9798   1.4134   3.1298   3.8877   5.3874
     6.1779   7.6645   8.3049  10.4371

          k = 0.0833 0.4330 0.0000 (  4717 PWs)   bands (ev):

   -34.3038 -31.5349 -30.2769 -21.5703 -16.9969 -15.8743 -12.5099 -10.6159
    -8.1144  -6.0630  -3.5430  -1.2429   0.3761   2.1188   2.8255   4.4063
     4.7395   6.3649   9.4778  12.0753

          k = 0.0833 0.5292 0.0000 (  4726 PWs)   bands (ev):

   -34.1128 -32.1315 -30.6539 -20.5027 -18.2824 -15.8582 -11.2121 -10.0724
    -6.6685  -4.5628  -4.2027  -0.8277   0.0767   0.7534   2.3106   3.1660
     3.8303   5.2396  10.5006  13.9797

          k = 0.1667 0.2887 0.0000 (  4706 PWs)   bands (ev):

   -34.5399 -30.4024 -29.3481 -22.7630 -16.2147 -16.1011 -13.7003 -12.7231
    -9.1344  -7.9012  -2.4966  -2.2670   2.2171   2.4726   4.8697   5.2371
     6.2341   7.1760   8.4115  10.2481

          k = 0.1667 0.3849 0.0000 (  4727 PWs)   bands (ev):

   -34.3394 -31.4595 -30.0745 -21.8847 -16.5162 -15.5804 -13.0763 -11.4463
    -7.6553  -6.8542  -3.2957  -1.5496   0.8193   1.8865   3.6674   4.2914
     5.7988   6.5741   8.4592  11.5691

          k = 0.1667 0.4811 0.0000 (  4736 PWs)   bands (ev):

   -34.0979 -32.2376 -30.5367 -20.9123 -17.5365 -15.7294 -11.8420 -10.2995
    -6.6489  -4.7276  -4.0643  -0.8170  -0.0928   1.0418   2.5862   3.1802
     4.3417   5.2297  10.5835  12.9208

          k = 0.1667 0.5774 0.0000 (  4744 PWs)   bands (ev):

   -33.9562 -32.5612 -30.6945 -20.3285 -18.1643 -15.8359 -11.1158 -10.1449
    -5.7744  -4.7465  -3.4197  -0.5149  -0.1092   0.4218   1.4252   3.0760
     3.9073   4.4710  11.7149  13.4157

          k = 0.2500 0.4330 0.0000 (  4736 PWs)   bands (ev):

   -34.0901 -32.2864 -30.4823 -21.0747 -17.1319 -15.7112 -12.1457 -10.4956
    -6.4826  -5.0116  -3.7514  -0.9611  -0.0868   0.9897   2.2997   3.2689
     4.4479   6.6043   9.2933  12.9366

          k = 0.2500 0.5292 0.0000 (  4754 PWs)   bands (ev):

   -33.8041 -32.8778 -30.6994 -20.4440 -17.5189 -16.1319 -11.1941 -10.2224
    -5.4217  -4.4062  -2.8315  -0.7981  -0.4552   0.5450   1.2825   2.3460
     2.8221   6.7296  10.8850  12.9115

          k = 0.3333 0.5774 0.0000 (  4740 PWs)   bands (ev):

   -33.4021 -33.4021 -30.7550 -20.3105 -16.8966 -16.8966 -10.5739 -10.5739
    -4.5742  -4.5742  -2.2228  -1.2242   0.4109   0.6238   0.6238   1.6579
     1.6579   8.0550  11.2624  11.2626

     the Fermi energy is     4.7538 ev

!    total energy              =     -58.05930429 Ry
     estimated scf accuracy    <          6.7E-09 Ry
     smearing contrib. (-TS)   =       0.00113394 Ry
     internal energy E=F+TS    =     -58.06043823 Ry

     The total energy is F=E-TS. E is the sum of the following terms:
     one-electron contribution =   -2233.46602401 Ry
     hartree contribution      =    1128.64188743 Ry
     xc contribution           =     -44.16048324 Ry
     ewald contribution        =    1090.92418159 Ry

     convergence has been achieved in  32 iterations

     negative rho (up, down):  6.662E-04 0.000E+00

     Forces acting on atoms (cartesian axes, Ry/au):

     atom    1 type  1   force =     0.00000000   -0.00000000  -24.07128130
     atom    2 type  1   force =     0.00000000    0.00000000   -2.43039898
     atom    3 type  1   force =     0.00000000    0.00000000  -23.41896078
     atom    4 type  1   force =     0.00000000    0.00000000   21.30168573
     atom    5 type  1   force =     0.00000000    0.00000000  -21.30170184
     atom    6 type  1   force =     0.00000000    0.00000000   23.41898842
     atom    7 type  1   force =     0.00000000    0.00000000    2.43039977
     atom    8 type  1   force =     0.00000000    0.00000000   24.07126897

     Total force =    56.347913     Total SCF correction =     0.000084


     Computing stress (Cartesian axis) and pressure


     negative rho (up, down):  6.662E-04 0.000E+00
          total   stress  (Ry/bohr**3)                   (kbar)     P=     9911.38
   0.02870235   0.00000000   0.00000000         4222.26        0.00        0.00
   0.00000000   0.02870235   0.00000000            0.00     4222.26        0.00
   0.00000000   0.00000000   0.14472389            0.00        0.00    21289.62


     Writing all to output data dir /run/media/rfa/SATA/Skripsi/DFT/Graphene-copy/tmp/gr-abc-4L.save/ :
     XML data file, charge density, pseudopotentials, collected wavefunctions

     init_run     :      2.03s CPU      2.07s WALL (       1 calls)
     electrons    :    244.68s CPU    186.49s WALL (       1 calls)
     forces       :      0.80s CPU      0.60s WALL (       1 calls)
     stress       :      2.96s CPU      2.23s WALL (       1 calls)

     Called by init_run:
     wfcinit      :      1.60s CPU      1.41s WALL (       1 calls)
     potinit      :      0.01s CPU      0.02s WALL (       1 calls)
     hinit0       :      0.27s CPU      0.49s WALL (       1 calls)

     Called by electrons:
     c_bands      :    227.30s CPU    172.54s WALL (      32 calls)
     sum_band     :     15.36s CPU     12.01s WALL (      32 calls)
     v_of_rho     :      0.43s CPU      0.48s WALL (      33 calls)
     newd         :      1.32s CPU      1.22s WALL (      33 calls)
     mix_rho      :      0.25s CPU      0.21s WALL (      32 calls)

     Called by c_bands:
     init_us_2    :      1.56s CPU      1.01s WALL (    1273 calls)
     cegterg      :    221.25s CPU    168.30s WALL (     618 calls)

     Called by *egterg:
     cdiaghg      :     13.93s CPU     11.29s WALL (    5602 calls)
     h_psi        :    110.40s CPU     89.69s WALL (    5621 calls)
     s_psi        :      4.70s CPU      3.90s WALL (    5621 calls)
     g_psi        :      0.49s CPU      0.27s WALL (    4984 calls)

     Called by h_psi:
     h_psi:calbec :     53.22s CPU     40.83s WALL (    5621 calls)
     vloc_psi     :     49.81s CPU     42.56s WALL (    5621 calls)
     add_vuspsi   :      6.75s CPU      5.88s WALL (    5621 calls)

     General routines
     calbec       :     63.41s CPU     48.83s WALL (    6552 calls)
     fft          :      0.47s CPU      0.72s WALL (     388 calls)
     ffts         :      0.02s CPU      0.01s WALL (      32 calls)
     fftw         :     51.23s CPU     43.83s WALL (  111090 calls)

     Parallel routines

     PWSCF        :   4m10.65s CPU   3m12.03s WALL


   This run was terminated on:  15:40:58  16Apr2025            

=------------------------------------------------------------------------------=
   JOB DONE.
=------------------------------------------------------------------------------=
