
     Program PWSCF v.7.4.1 starts on 16Apr2025 at 15:33:15 

     This program is part of the open-source Quantum ESPRESSO suite
     for quantum simulation of materials; please cite
         "P. Giannozzi et al., J. Phys.:Condens. Matter 21 395502 (2009);
         "P. Giannozzi et al., J. Phys.:Condens. Matter 29 465901 (2017);
         "P. Giannozzi et al., J. Chem. Phys. 152 154105 (2020);
          URL http://www.quantum-espresso.org", 
     in publications or presentations arising from this work. More details at
     http://www.quantum-espresso.org/quote

     Parallel version (MPI), running on     7 processors

     MPI processes distributed on     1 nodes
     14435 MiB available memory on the printing compute node when the environment starts

     Waiting for input...
     Reading input from standard input

     Current dimensions of program PWSCF are:
     Max number of different atomic species (ntypx) = 10
     Max number of k-points (npk) =  40000
     Max angular momentum in pseudopotentials (lmaxx) =  4

     R & G space division:  proc/nbgrp/npool/nimage =       7
     Subspace diagonalization in iterative solution of the eigenvalue problem:
     a serial algorithm will be used


     Parallelization info
     --------------------
     sticks:   dense  smooth     PW     G-vecs:    dense   smooth      PW
     Min          44      44     15                 4122     4122     733
     Max          45      45     16                 4159     4159     742
     Sum         313     313    109                29029    29029    5163

     Using Slab Decomposition



     bravais-lattice index     =            4
     lattice parameter (alat)  =       4.6561  a.u.
     unit-cell volume          =     532.1899 (a.u.)^3
     number of atoms/cell      =            8
     number of atomic types    =            1
     number of electrons       =        32.00
     number of Kohn-Sham states=           20
     kinetic-energy cutoff     =      55.0000  Ry
     charge density cutoff     =     220.0000  Ry
     scf convergence threshold =      1.0E-08
     mixing beta               =       0.7000
     number of iterations used =            8  plain     mixing
     Exchange-correlation= PBE
                           (   1   4   3   4   0   0   0)

     celldm(1)=   4.656107  celldm(2)=   0.000000  celldm(3)=   6.087896
     celldm(4)=   0.000000  celldm(5)=   0.000000  celldm(6)=   0.000000

     crystal axes: (cart. coord. in units of alat)
               a(1) = (   1.000000   0.000000   0.000000 )  
               a(2) = (  -0.500000   0.866025   0.000000 )  
               a(3) = (   0.000000   0.000000   6.087896 )  

     reciprocal axes: (cart. coord. in units 2 pi/alat)
               b(1) = (  1.000000  0.577350 -0.000000 )  
               b(2) = (  0.000000  1.154701  0.000000 )  
               b(3) = (  0.000000 -0.000000  0.164260 )  


     PseudoPot. # 1 for C  read from file:
     /run/media/rfa/SATA/Skripsi/DFT/Graphene-copy/pseudo/C.pbe-n-rrkjus_psl.0.1.UPF
     MD5 check sum: 96a6a315177d77e6c95bf6fd3870f9e3
     Pseudo is Ultrasoft + core correction, Zval =  4.0
     Generated using &quot;atomic&quot; code by A. Dal Corso  v.6.3MaX
     Using radial grid of 1073 points,  4 beta functions with: 
                l(1) =   0
                l(2) =   0
                l(3) =   1
                l(4) =   1
     Q(r) pseudized with 0 coefficients 


     atomic species   valence    mass     pseudopotential
     C                 4.00    12.01070     C ( 1.00)

      6 Sym. Ops. (no inversion) found



   Cartesian axes

     site n.     atom                  positions (alat units)
         1        C      tau(   1) = (   0.0000000   0.5773503   3.0439478  )
         2        C      tau(   2) = (   0.5000000   0.2886751   3.0439478  )
         3        C      tau(   3) = (   0.0000000   0.0000000   3.2468777  )
         4        C      tau(   4) = (   0.0000000   0.5773503   3.2468777  )
         5        C      tau(   5) = (   0.5000000   0.2886751   3.4498075  )
         6        C      tau(   6) = (   0.0000000   0.0000000   3.4498075  )
         7        C      tau(   7) = (   0.0000000   0.5773503   3.6527374  )
         8        C      tau(   8) = (   0.5000000   0.2886751   3.6527374  )

     number of k points=    19  Marzari-Vanderbilt smearing, width (Ry)=  0.0200
                       cart. coord. in units 2pi/alat
        k(    1) = (   0.0000000   0.0000000   0.0000000), wk =   0.0138889
        k(    2) = (   0.0000000   0.0962250   0.0000000), wk =   0.0833333
        k(    3) = (   0.0000000   0.1924501   0.0000000), wk =   0.0833333
        k(    4) = (   0.0000000   0.2886751   0.0000000), wk =   0.0833333
        k(    5) = (   0.0000000   0.3849002   0.0000000), wk =   0.0833333
        k(    6) = (   0.0000000   0.4811252   0.0000000), wk =   0.0833333
        k(    7) = (   0.0000000  -0.5773503   0.0000000), wk =   0.0416667
        k(    8) = (   0.0833333   0.1443376   0.0000000), wk =   0.0833333
        k(    9) = (   0.0833333   0.2405626   0.0000000), wk =   0.1666667
        k(   10) = (   0.0833333   0.3367877   0.0000000), wk =   0.1666667
        k(   11) = (   0.0833333   0.4330127   0.0000000), wk =   0.1666667
        k(   12) = (   0.0833333   0.5292377   0.0000000), wk =   0.1666667
        k(   13) = (   0.1666667   0.2886751   0.0000000), wk =   0.0833333
        k(   14) = (   0.1666667   0.3849002   0.0000000), wk =   0.1666667
        k(   15) = (   0.1666667   0.4811252   0.0000000), wk =   0.1666667
        k(   16) = (   0.1666667   0.5773503   0.0000000), wk =   0.0833333
        k(   17) = (   0.2500000   0.4330127   0.0000000), wk =   0.0833333
        k(   18) = (   0.2500000   0.5292377   0.0000000), wk =   0.1666667
        k(   19) = (   0.3333333   0.5773503   0.0000000), wk =   0.0277778

     Dense  grid:    29029 G-vectors     FFT dimensions: (  24,  24, 135)

     Estimated max dynamical RAM per process >      10.68 MB

     Estimated total dynamical RAM >      74.74 MB

     Check: negative core charge=   -0.000002

     Initial potential from superposition of free atoms

     starting charge      31.9997, renormalised to      32.0000

     negative rho (up, down):  2.935E-04 0.000E+00
     Starting wfcs are   32 randomized atomic wfcs

     total cpu time spent up to now is        1.4 secs

     per-process dynamical memory:    13.4 Mb

     Self-consistent Calculation

     iteration #  1     ecut=    55.00 Ry     beta= 0.70
     Davidson diagonalization with overlap
     ethr =  1.00E-02,  avg # of iterations =  8.9

     negative rho (up, down):  1.516E-03 0.000E+00

     total cpu time spent up to now is        8.8 secs

     total energy              =     -50.27323684 Ry
     estimated scf accuracy    <      18.17108289 Ry

     iteration #  2     ecut=    55.00 Ry     beta= 0.70
     Davidson diagonalization with overlap
     c_bands:  1 eigenvalues not converged
     c_bands:  1 eigenvalues not converged
     c_bands:  2 eigenvalues not converged
     c_bands:  1 eigenvalues not converged
     c_bands:  2 eigenvalues not converged
     c_bands:  2 eigenvalues not converged
     ethr =  1.00E-02,  avg # of iterations = 18.0

     total cpu time spent up to now is       19.5 secs

     total energy              =     -35.42973378 Ry
     estimated scf accuracy    <      97.70122186 Ry

     iteration #  3     ecut=    55.00 Ry     beta= 0.70
     Davidson diagonalization with overlap
     c_bands:  1 eigenvalues not converged
     c_bands:  1 eigenvalues not converged
     ethr =  1.00E-02,  avg # of iterations = 14.6

     total cpu time spent up to now is       28.7 secs

     total energy              =     -57.95737851 Ry
     estimated scf accuracy    <       3.23511316 Ry

     iteration #  4     ecut=    55.00 Ry     beta= 0.70
     Davidson diagonalization with overlap
     ethr =  1.00E-02,  avg # of iterations =  3.3

     total cpu time spent up to now is       31.0 secs

     total energy              =     -58.03337704 Ry
     estimated scf accuracy    <       1.40451987 Ry

     iteration #  5     ecut=    55.00 Ry     beta= 0.70
     Davidson diagonalization with overlap
     ethr =  4.39E-03,  avg # of iterations =  4.5

     total cpu time spent up to now is       33.9 secs

     total energy              =     -58.03145552 Ry
     estimated scf accuracy    <       2.30664471 Ry

     iteration #  6     ecut=    55.00 Ry     beta= 0.70
     Davidson diagonalization with overlap
     ethr =  4.39E-03,  avg # of iterations =  1.3

     total cpu time spent up to now is       35.8 secs

     total energy              =     -58.04262129 Ry
     estimated scf accuracy    <       0.85357520 Ry

     iteration #  7     ecut=    55.00 Ry     beta= 0.70
     Davidson diagonalization with overlap
     ethr =  2.67E-03,  avg # of iterations =  2.1

     total cpu time spent up to now is       38.0 secs

     total energy              =     -58.04729513 Ry
     estimated scf accuracy    <       0.47389815 Ry

     iteration #  8     ecut=    55.00 Ry     beta= 0.70
     Davidson diagonalization with overlap
     ethr =  1.48E-03,  avg # of iterations =  2.9

     total cpu time spent up to now is       39.8 secs

     total energy              =     -58.08376716 Ry
     estimated scf accuracy    <       0.36633635 Ry

     iteration #  9     ecut=    55.00 Ry     beta= 0.70
     Davidson diagonalization with overlap
     ethr =  1.14E-03,  avg # of iterations =  1.9

     total cpu time spent up to now is       42.0 secs

     total energy              =     -58.12066084 Ry
     estimated scf accuracy    <       0.34532972 Ry

     iteration # 10     ecut=    55.00 Ry     beta= 0.70
     Davidson diagonalization with overlap
     ethr =  1.08E-03,  avg # of iterations =  1.1

     total cpu time spent up to now is       44.3 secs

     total energy              =     -57.90483250 Ry
     estimated scf accuracy    <       0.36429534 Ry

     iteration # 11     ecut=    55.00 Ry     beta= 0.70
     Davidson diagonalization with overlap
     ethr =  1.08E-03,  avg # of iterations =  6.2

     negative rho (up, down):  9.568E-04 0.000E+00

     total cpu time spent up to now is       48.5 secs

     total energy              =     -57.98185125 Ry
     estimated scf accuracy    <       0.03379906 Ry

     iteration # 12     ecut=    55.00 Ry     beta= 0.70
     Davidson diagonalization with overlap
     c_bands:  1 eigenvalues not converged
     c_bands:  1 eigenvalues not converged
     c_bands:  1 eigenvalues not converged
     c_bands:  2 eigenvalues not converged
     c_bands:  1 eigenvalues not converged
     c_bands:  1 eigenvalues not converged
     c_bands:  1 eigenvalues not converged
     c_bands:  2 eigenvalues not converged
     ethr =  1.06E-04,  avg # of iterations = 18.6

     negative rho (up, down):  2.910E-04 0.000E+00

     total cpu time spent up to now is       58.2 secs

     total energy              =     -58.03090008 Ry
     estimated scf accuracy    <       0.04735119 Ry

     iteration # 13     ecut=    55.00 Ry     beta= 0.70
     Davidson diagonalization with overlap
     ethr =  1.06E-04,  avg # of iterations =  3.1

     negative rho (up, down):  1.047E-03 0.000E+00

     total cpu time spent up to now is       60.9 secs

     total energy              =     -58.03488287 Ry
     estimated scf accuracy    <       0.04217473 Ry

     iteration # 14     ecut=    55.00 Ry     beta= 0.70
     Davidson diagonalization with overlap
     ethr =  1.06E-04,  avg # of iterations =  3.3

     negative rho (up, down):  2.926E-03 0.000E+00

     total cpu time spent up to now is       63.8 secs

     total energy              =     -58.03680710 Ry
     estimated scf accuracy    <       0.04303870 Ry

     iteration # 15     ecut=    55.00 Ry     beta= 0.70
     Davidson diagonalization with overlap
     ethr =  1.06E-04,  avg # of iterations =  1.1

     negative rho (up, down):  2.315E-03 0.000E+00

     total cpu time spent up to now is       65.6 secs

     total energy              =     -58.03206741 Ry
     estimated scf accuracy    <       0.04485853 Ry

     iteration # 16     ecut=    55.00 Ry     beta= 0.70
     Davidson diagonalization with overlap
     ethr =  1.06E-04,  avg # of iterations =  3.0

     negative rho (up, down):  1.320E-03 0.000E+00

     total cpu time spent up to now is       68.3 secs

     total energy              =     -58.02911464 Ry
     estimated scf accuracy    <       0.03465328 Ry

     iteration # 17     ecut=    55.00 Ry     beta= 0.70
     Davidson diagonalization with overlap
     ethr =  1.06E-04,  avg # of iterations =  2.0

     negative rho (up, down):  1.012E-03 0.000E+00

     total cpu time spent up to now is       71.2 secs

     total energy              =     -58.02785535 Ry
     estimated scf accuracy    <       0.02362994 Ry

     iteration # 18     ecut=    55.00 Ry     beta= 0.70
     Davidson diagonalization with overlap
     ethr =  7.38E-05,  avg # of iterations =  2.7

     negative rho (up, down):  1.053E-03 0.000E+00

     total cpu time spent up to now is       73.5 secs

     total energy              =     -58.02237526 Ry
     estimated scf accuracy    <       0.01788859 Ry

     iteration # 19     ecut=    55.00 Ry     beta= 0.70
     Davidson diagonalization with overlap
     ethr =  5.59E-05,  avg # of iterations =  1.4

     negative rho (up, down):  1.466E-03 0.000E+00

     total cpu time spent up to now is       76.0 secs

     total energy              =     -58.02116115 Ry
     estimated scf accuracy    <       0.00398257 Ry

     iteration # 20     ecut=    55.00 Ry     beta= 0.70
     Davidson diagonalization with overlap
     c_bands:  2 eigenvalues not converged
     c_bands:  1 eigenvalues not converged
     ethr =  1.24E-05,  avg # of iterations = 13.3

     negative rho (up, down):  1.480E-03 0.000E+00

     total cpu time spent up to now is       82.5 secs

     total energy              =     -58.02429201 Ry
     estimated scf accuracy    <       0.00119146 Ry

     iteration # 21     ecut=    55.00 Ry     beta= 0.70
     Davidson diagonalization with overlap
     c_bands:  1 eigenvalues not converged
     ethr =  3.72E-06,  avg # of iterations =  9.3

     negative rho (up, down):  1.477E-03 0.000E+00

     total cpu time spent up to now is       83.9 secs

     total energy              =     -58.02450513 Ry
     estimated scf accuracy    <       0.00049261 Ry

     iteration # 22     ecut=    55.00 Ry     beta= 0.70
     Davidson diagonalization with overlap
     c_bands:  1 eigenvalues not converged
     ethr =  1.54E-06,  avg # of iterations =  7.9

     negative rho (up, down):  1.460E-03 0.000E+00

     total cpu time spent up to now is       87.9 secs

     total energy              =     -58.02459465 Ry
     estimated scf accuracy    <       0.00010317 Ry

     iteration # 23     ecut=    55.00 Ry     beta= 0.70
     Davidson diagonalization with overlap
     ethr =  3.22E-07,  avg # of iterations =  7.1

     negative rho (up, down):  1.414E-03 0.000E+00

     total cpu time spent up to now is       92.3 secs

     total energy              =     -58.02468799 Ry
     estimated scf accuracy    <       0.00001129 Ry

     iteration # 24     ecut=    55.00 Ry     beta= 0.70
     Davidson diagonalization with overlap
     c_bands:  1 eigenvalues not converged
     ethr =  3.53E-08,  avg # of iterations = 10.6

     negative rho (up, down):  1.397E-03 0.000E+00

     total cpu time spent up to now is      100.7 secs

     total energy              =     -58.02471012 Ry
     estimated scf accuracy    <       0.00000100 Ry

     iteration # 25     ecut=    55.00 Ry     beta= 0.70
     Davidson diagonalization with overlap
     ethr =  3.13E-09,  avg # of iterations =  8.8

     negative rho (up, down):  1.386E-03 0.000E+00

     total cpu time spent up to now is      106.6 secs

     total energy              =     -58.02471147 Ry
     estimated scf accuracy    <       0.00000078 Ry

     iteration # 26     ecut=    55.00 Ry     beta= 0.70
     Davidson diagonalization with overlap
     ethr =  2.43E-09,  avg # of iterations =  4.5

     negative rho (up, down):  1.387E-03 0.000E+00

     total cpu time spent up to now is      109.5 secs

     total energy              =     -58.02471169 Ry
     estimated scf accuracy    <       0.00000019 Ry

     iteration # 27     ecut=    55.00 Ry     beta= 0.70
     Davidson diagonalization with overlap
     ethr =  5.97E-10,  avg # of iterations =  4.8

     negative rho (up, down):  1.388E-03 0.000E+00

     total cpu time spent up to now is      113.1 secs

     total energy              =     -58.02471174 Ry
     estimated scf accuracy    <       0.00000005 Ry

     iteration # 28     ecut=    55.00 Ry     beta= 0.70
     Davidson diagonalization with overlap
     ethr =  1.65E-10,  avg # of iterations =  7.0

     negative rho (up, down):  1.388E-03 0.000E+00

     total cpu time spent up to now is      118.4 secs

     End of self-consistent calculation

          k = 0.0000 0.0000 0.0000 (  3727 PWs)   bands (ev):

   -34.8572 -24.5076 -24.0199 -24.0199 -23.6731 -23.6731 -14.4635 -10.3921
   -10.3921  -8.6869  -1.7875  -0.2988   0.2924   0.2924   4.9359   7.3927
     7.6862   8.0040   8.4755   8.4755

          k = 0.0000 0.0962 0.0000 (  3733 PWs)   bands (ev):

   -34.8338 -26.1543 -25.8806 -24.2687 -21.5804 -21.3774 -14.3316 -10.5946
   -10.5762  -8.7876  -2.4706  -0.5385   0.8628   1.5823   4.8214   7.2915
     7.8554   8.0045   8.1238   8.2139

          k = 0.0000 0.1925 0.0000 (  3703 PWs)   bands (ev):

   -34.7590 -28.0777 -27.5914 -23.8350 -19.2676 -18.7466 -14.0504 -11.3166
   -10.9364  -8.5823  -2.7971  -1.1796   2.2726   2.8444   4.3506   6.6768
     7.3306   8.0347   8.4683   8.8185

          k = 0.0000 0.2887 0.0000 (  3676 PWs)   bands (ev):

   -34.6283 -29.6724 -28.9511 -23.1259 -17.3059 -16.3129 -14.2521 -11.6372
   -10.7955  -7.8587  -2.5055  -1.9614   2.0813   3.4514   3.8400   5.9357
     6.9823   7.6431   9.2460   9.7995

          k = 0.0000 0.3849 0.0000 (  3662 PWs)   bands (ev):

   -34.4422 -30.9134 -29.9358 -22.1730 -16.2583 -16.2553 -13.3950 -10.8322
    -9.5669  -6.7762  -3.0333  -1.5908   0.8267   2.8098   2.9972   5.0333
     6.1592   7.4757   8.2550  11.1161

          k = 0.0000 0.4811 0.0000 (  3654 PWs)   bands (ev):

   -34.2332 -31.7580 -30.5309 -21.0444 -17.7207 -15.9799 -11.7260 -10.0847
    -7.6646  -5.3819  -3.8032  -1.1058   0.5358   1.2901   1.7479   4.0760
     4.6787   6.0630   9.5438  13.0663

          k = 0.0000-0.5774 0.0000 (  3600 PWs)   bands (ev):

   -34.1230 -32.0791 -30.7299 -20.2018 -18.7086 -15.9492 -10.8321 -10.0735
    -6.6083  -4.4209  -4.2161  -0.4986  -0.4747   0.4040   2.0926   3.1492
     3.9264   5.7106   9.8655  14.4255

          k = 0.0833 0.1443 0.0000 (  3705 PWs)   bands (ev):

   -34.7844 -27.6186 -27.1356 -23.9904 -19.8278 -19.4966 -14.1044 -11.3345
   -10.5726  -8.7476  -2.8039  -0.9810   1.9233   2.6629   4.5064   6.9914
     7.1570   8.0706   8.2795   8.6270

          k = 0.0833 0.2406 0.0000 (  3670 PWs)   bands (ev):

   -34.6803 -29.1918 -28.4650 -23.4255 -17.8000 -17.2063 -13.9268 -12.2471
   -10.3930  -8.3132  -2.6770  -1.7321   2.7015   3.4967   3.8089   6.2168
     6.5353   8.0292   8.9909   9.4362

          k = 0.0833 0.3368 0.0000 (  3669 PWs)   bands (ev):

   -34.5188 -30.5286 -29.5448 -22.6014 -16.4158 -15.8444 -13.9477 -11.8779
    -9.5531  -7.4333  -2.7065  -1.9732   1.4110   3.1257   3.8805   5.3755
     6.1792   7.6645   8.3020  10.4535

          k = 0.0833 0.4330 0.0000 (  3654 PWs)   bands (ev):

   -34.3073 -31.5425 -30.2882 -21.5712 -16.9983 -15.8846 -12.4990 -10.6079
    -8.1187  -6.0674  -3.5493  -1.2438   0.3723   2.1191   2.8232   4.4010
     4.7365   6.3555   9.4730  12.0909

          k = 0.0833 0.5292 0.0000 (  3630 PWs)   bands (ev):

   -34.1161 -32.1382 -30.6652 -20.5029 -18.2809 -15.8682 -11.1926 -10.0666
    -6.6751  -4.5674  -4.2126  -0.8357   0.0677   0.7553   2.3200   3.1746
     3.8187   5.2281  10.4941  13.9858

          k = 0.1667 0.2887 0.0000 (  3687 PWs)   bands (ev):

   -34.5435 -30.4112 -29.3593 -22.7640 -16.2250 -16.1100 -13.6887 -12.7212
    -9.1400  -7.8989  -2.5043  -2.2606   2.2244   2.4580   4.8557   5.2310
     6.2249   7.1905   8.4083  10.2646

          k = 0.1667 0.3849 0.0000 (  3677 PWs)   bands (ev):

   -34.3432 -31.4676 -30.0853 -21.8860 -16.5201 -15.5908 -13.0637 -11.4441
    -7.6578  -6.8579  -3.3026  -1.5461   0.8115   1.8877   3.6606   4.2797
     5.7988   6.5687   8.4581  11.5828

          k = 0.1667 0.4811 0.0000 (  3638 PWs)   bands (ev):

   -34.1015 -32.2447 -30.5472 -20.9129 -17.5369 -15.7382 -11.8248 -10.2932
    -6.6519  -4.7371  -4.0693  -0.8201  -0.0964   1.0430   2.5862   3.1693
     4.3327   5.2346  10.5816  12.9251

          k = 0.1667 0.5774 0.0000 (  3632 PWs)   bands (ev):

   -33.9599 -32.5677 -30.7047 -20.3286 -18.1632 -15.8446 -11.0932 -10.1398
    -5.7808  -4.7496  -3.4340  -0.5102  -0.1245   0.4243   1.4284   3.0626
     3.8966   4.4837  11.7090  13.4286

          k = 0.2500 0.4330 0.0000 (  3641 PWs)   bands (ev):

   -34.0937 -32.2935 -30.4924 -21.0751 -17.1337 -15.7186 -12.1295 -10.4902
    -6.4826  -5.0211  -3.7577  -0.9550  -0.0975   0.9930   2.2969   3.2573
     4.4333   6.6192   9.2917  12.9403

          k = 0.2500 0.5292 0.0000 (  3658 PWs)   bands (ev):

   -33.8088 -32.8843 -30.7093 -20.4448 -17.5205 -16.1375 -11.1783 -10.2150
    -5.4257  -4.4125  -2.8468  -0.7903  -0.4562   0.5334   1.2794   2.3351
     2.8085   6.7449  10.8861  12.9140

          k = 0.3333 0.5774 0.0000 (  3666 PWs)   bands (ev):

   -33.4082 -33.4082 -30.7648 -20.3122 -16.8999 -16.8998 -10.5631 -10.5630
    -4.5797  -4.5797  -2.2424  -1.2087   0.4021   0.6167   0.6167   1.6463
     1.6464   8.0761  11.2621  11.2621

     the Fermi energy is     4.7465 ev

!    total energy              =     -58.02471178 Ry
     estimated scf accuracy    <          5.7E-09 Ry
     smearing contrib. (-TS)   =       0.00109204 Ry
     internal energy E=F+TS    =     -58.02580382 Ry

     The total energy is F=E-TS. E is the sum of the following terms:
     one-electron contribution =   -2233.39436430 Ry
     hartree contribution      =    1128.60061100 Ry
     xc contribution           =     -44.15623181 Ry
     ewald contribution        =    1090.92418129 Ry

     convergence has been achieved in  28 iterations

     negative rho (up, down):  1.388E-03 0.000E+00

     Forces acting on atoms (cartesian axes, Ry/au):

     atom    1 type  1   force =     0.00000000    0.00000000  -24.15897086
     atom    2 type  1   force =     0.00000000   -0.00000000   -2.43543809
     atom    3 type  1   force =     0.00000000    0.00000000  -23.51236019
     atom    4 type  1   force =     0.00000000    0.00000000   21.38359997
     atom    5 type  1   force =     0.00000000    0.00000000  -21.38356598
     atom    6 type  1   force =     0.00000000    0.00000000   23.51230766
     atom    7 type  1   force =     0.00000000   -0.00000000    2.43541994
     atom    8 type  1   force =     0.00000000    0.00000000   24.15900756

     Total force =    56.562807     Total SCF correction =     0.000323


     Computing stress (Cartesian axis) and pressure


     negative rho (up, down):  1.388E-03 0.000E+00
          total   stress  (Ry/bohr**3)                   (kbar)     P=     9895.18
   0.02856092   0.00000000   0.00000000         4201.46        0.00        0.00
   0.00000000   0.02856092   0.00000000            0.00     4201.46        0.00
   0.00000000   0.00000000   0.14467637            0.00        0.00    21282.63


     Writing all to output data dir /run/media/rfa/SATA/Skripsi/DFT/Graphene-copy/tmp/gr-abc-4L.save/ :
     XML data file, charge density, pseudopotentials, collected wavefunctions

     init_run     :      1.26s CPU      1.29s WALL (       1 calls)
     electrons    :    154.09s CPU    116.99s WALL (       1 calls)
     forces       :      0.82s CPU      0.67s WALL (       1 calls)
     stress       :      1.93s CPU      1.26s WALL (       1 calls)

     Called by init_run:
     wfcinit      :      0.89s CPU      0.73s WALL (       1 calls)
     potinit      :      0.01s CPU      0.02s WALL (       1 calls)
     hinit0       :      0.22s CPU      0.38s WALL (       1 calls)

     Called by electrons:
     c_bands      :    141.37s CPU    106.96s WALL (      28 calls)
     sum_band     :     10.83s CPU      8.18s WALL (      28 calls)
     v_of_rho     :      0.36s CPU      0.40s WALL (      29 calls)
     newd         :      1.38s CPU      1.31s WALL (      29 calls)
     mix_rho      :      0.16s CPU      0.12s WALL (      28 calls)

     Called by c_bands:
     init_us_2    :      0.80s CPU      0.62s WALL (    1121 calls)
     cegterg      :    136.93s CPU    103.86s WALL (     533 calls)

     Called by *egterg:
     cdiaghg      :      9.40s CPU      7.35s WALL (    3829 calls)
     h_psi        :     69.95s CPU     55.76s WALL (    3848 calls)
     s_psi        :      2.96s CPU      2.42s WALL (    3848 calls)
     g_psi        :      0.26s CPU      0.15s WALL (    3296 calls)

     Called by h_psi:
     h_psi:calbec :     29.11s CPU     21.54s WALL (    3848 calls)
     vloc_psi     :     36.76s CPU     30.51s WALL (    3848 calls)
     add_vuspsi   :      3.80s CPU      3.49s WALL (    3848 calls)

     General routines
     calbec       :     35.83s CPU     26.44s WALL (    4703 calls)
     fft          :      0.39s CPU      0.57s WALL (     344 calls)
     ffts         :      0.01s CPU      0.01s WALL (      28 calls)
     fftw         :     38.53s CPU     31.86s WALL (   88928 calls)

     Parallel routines

     PWSCF        :   2m38.27s CPU   2m 0.73s WALL


   This run was terminated on:  15:35:16  16Apr2025            

=------------------------------------------------------------------------------=
   JOB DONE.
=------------------------------------------------------------------------------=
