
     Program PWSCF v.7.4.1 starts on 16Apr2025 at 15:46:46 

     This program is part of the open-source Quantum ESPRESSO suite
     for quantum simulation of materials; please cite
         "P. Giannozzi et al., J. Phys.:Condens. Matter 21 395502 (2009);
         "P. Giannozzi et al., J. Phys.:Condens. Matter 29 465901 (2017);
         "P. Giannozzi et al., J. Chem. Phys. 152 154105 (2020);
          URL http://www.quantum-espresso.org", 
     in publications or presentations arising from this work. More details at
     http://www.quantum-espresso.org/quote

     Parallel version (MPI), running on     7 processors

     MPI processes distributed on     1 nodes
     13177 MiB available memory on the printing compute node when the environment starts

     Waiting for input...
     Reading input from standard input

     Current dimensions of program PWSCF are:
     Max number of different atomic species (ntypx) = 10
     Max number of k-points (npk) =  40000
     Max angular momentum in pseudopotentials (lmaxx) =  4

     R & G space division:  proc/nbgrp/npool/nimage =       7
     Subspace diagonalization in iterative solution of the eigenvalue problem:
     a serial algorithm will be used


     Parallelization info
     --------------------
     sticks:   dense  smooth     PW     G-vecs:    dense   smooth      PW
     Min          67      67     21                 7315     7315    1227
     Max          68      68     22                 7338     7338    1238
     Sum         475     475    151                51311    51311    8639

     Using Slab Decomposition



     bravais-lattice index     =            4
     lattice parameter (alat)  =       4.6561  a.u.
     unit-cell volume          =     532.1899 (a.u.)^3
     number of atoms/cell      =            8
     number of atomic types    =            1
     number of electrons       =        32.00
     number of Kohn-Sham states=           20
     kinetic-energy cutoff     =      80.0000  Ry
     charge density cutoff     =     320.0000  Ry
     scf convergence threshold =      1.0E-08
     mixing beta               =       0.7000
     number of iterations used =            8  plain     mixing
     Exchange-correlation= PBE
                           (   1   4   3   4   0   0   0)

     celldm(1)=   4.656107  celldm(2)=   0.000000  celldm(3)=   6.087896
     celldm(4)=   0.000000  celldm(5)=   0.000000  celldm(6)=   0.000000

     crystal axes: (cart. coord. in units of alat)
               a(1) = (   1.000000   0.000000   0.000000 )  
               a(2) = (  -0.500000   0.866025   0.000000 )  
               a(3) = (   0.000000   0.000000   6.087896 )  

     reciprocal axes: (cart. coord. in units 2 pi/alat)
               b(1) = (  1.000000  0.577350 -0.000000 )  
               b(2) = (  0.000000  1.154701  0.000000 )  
               b(3) = (  0.000000 -0.000000  0.164260 )  


     PseudoPot. # 1 for C  read from file:
     /run/media/rfa/SATA/Skripsi/DFT/Graphene-copy/pseudo/C.pbe-n-rrkjus_psl.0.1.UPF
     MD5 check sum: 96a6a315177d77e6c95bf6fd3870f9e3
     Pseudo is Ultrasoft + core correction, Zval =  4.0
     Generated using &quot;atomic&quot; code by A. Dal Corso  v.6.3MaX
     Using radial grid of 1073 points,  4 beta functions with: 
                l(1) =   0
                l(2) =   0
                l(3) =   1
                l(4) =   1
     Q(r) pseudized with 0 coefficients 


     atomic species   valence    mass     pseudopotential
     C                 4.00    12.01070     C ( 1.00)

      6 Sym. Ops. (no inversion) found



   Cartesian axes

     site n.     atom                  positions (alat units)
         1        C      tau(   1) = (   0.0000000   0.5773503   3.0439478  )
         2        C      tau(   2) = (   0.5000000   0.2886751   3.0439478  )
         3        C      tau(   3) = (   0.0000000   0.0000000   3.2468777  )
         4        C      tau(   4) = (   0.0000000   0.5773503   3.2468777  )
         5        C      tau(   5) = (   0.5000000   0.2886751   3.4498075  )
         6        C      tau(   6) = (   0.0000000   0.0000000   3.4498075  )
         7        C      tau(   7) = (   0.0000000   0.5773503   3.6527374  )
         8        C      tau(   8) = (   0.5000000   0.2886751   3.6527374  )

     number of k points=    19  Marzari-Vanderbilt smearing, width (Ry)=  0.0200
                       cart. coord. in units 2pi/alat
        k(    1) = (   0.0000000   0.0000000   0.0000000), wk =   0.0138889
        k(    2) = (   0.0000000   0.0962250   0.0000000), wk =   0.0833333
        k(    3) = (   0.0000000   0.1924501   0.0000000), wk =   0.0833333
        k(    4) = (   0.0000000   0.2886751   0.0000000), wk =   0.0833333
        k(    5) = (   0.0000000   0.3849002   0.0000000), wk =   0.0833333
        k(    6) = (   0.0000000   0.4811252   0.0000000), wk =   0.0833333
        k(    7) = (   0.0000000  -0.5773503   0.0000000), wk =   0.0416667
        k(    8) = (   0.0833333   0.1443376   0.0000000), wk =   0.0833333
        k(    9) = (   0.0833333   0.2405626   0.0000000), wk =   0.1666667
        k(   10) = (   0.0833333   0.3367877   0.0000000), wk =   0.1666667
        k(   11) = (   0.0833333   0.4330127   0.0000000), wk =   0.1666667
        k(   12) = (   0.0833333   0.5292377   0.0000000), wk =   0.1666667
        k(   13) = (   0.1666667   0.2886751   0.0000000), wk =   0.0833333
        k(   14) = (   0.1666667   0.3849002   0.0000000), wk =   0.1666667
        k(   15) = (   0.1666667   0.4811252   0.0000000), wk =   0.1666667
        k(   16) = (   0.1666667   0.5773503   0.0000000), wk =   0.0833333
        k(   17) = (   0.2500000   0.4330127   0.0000000), wk =   0.0833333
        k(   18) = (   0.2500000   0.5292377   0.0000000), wk =   0.1666667
        k(   19) = (   0.3333333   0.5773503   0.0000000), wk =   0.0277778

     Dense  grid:    51311 G-vectors     FFT dimensions: (  27,  27, 162)

     Estimated max dynamical RAM per process >      18.49 MB

     Estimated total dynamical RAM >     129.46 MB

     Check: negative core charge=   -0.000002

     Initial potential from superposition of free atoms

     starting charge      31.9997, renormalised to      32.0000

     negative rho (up, down):  9.067E-05 0.000E+00
     Starting wfcs are   32 randomized atomic wfcs

     total cpu time spent up to now is        2.2 secs

     per-process dynamical memory:    18.0 Mb

     Self-consistent Calculation

     iteration #  1     ecut=    80.00 Ry     beta= 0.70
     Davidson diagonalization with overlap
     ethr =  1.00E-02,  avg # of iterations =  8.6

     negative rho (up, down):  1.967E-04 0.000E+00

     total cpu time spent up to now is       12.5 secs

     total energy              =     -50.30933403 Ry
     estimated scf accuracy    <      18.15382456 Ry

     iteration #  2     ecut=    80.00 Ry     beta= 0.70
     Davidson diagonalization with overlap
     c_bands:  3 eigenvalues not converged
     c_bands:  4 eigenvalues not converged
     c_bands:  2 eigenvalues not converged
     ethr =  1.00E-02,  avg # of iterations = 16.8

     total cpu time spent up to now is       28.4 secs

     total energy              =     -36.76439604 Ry
     estimated scf accuracy    <      90.31107841 Ry

     iteration #  3     ecut=    80.00 Ry     beta= 0.70
     Davidson diagonalization with overlap
     c_bands:  3 eigenvalues not converged
     c_bands:  1 eigenvalues not converged
     c_bands:  1 eigenvalues not converged
     ethr =  1.00E-02,  avg # of iterations = 13.5

     total cpu time spent up to now is       41.1 secs

     total energy              =     -57.92447949 Ry
     estimated scf accuracy    <       3.12223038 Ry

     iteration #  4     ecut=    80.00 Ry     beta= 0.70
     Davidson diagonalization with overlap
     ethr =  9.76E-03,  avg # of iterations =  4.7

     total cpu time spent up to now is       45.6 secs

     total energy              =     -58.07934437 Ry
     estimated scf accuracy    <       1.34742629 Ry

     iteration #  5     ecut=    80.00 Ry     beta= 0.70
     Davidson diagonalization with overlap
     ethr =  4.21E-03,  avg # of iterations =  3.1

     total cpu time spent up to now is       49.2 secs

     total energy              =     -58.05775015 Ry
     estimated scf accuracy    <       1.74495033 Ry

     iteration #  6     ecut=    80.00 Ry     beta= 0.70
     Davidson diagonalization with overlap
     ethr =  4.21E-03,  avg # of iterations =  1.3

     total cpu time spent up to now is       52.8 secs

     total energy              =     -58.01718933 Ry
     estimated scf accuracy    <       0.86297125 Ry

     iteration #  7     ecut=    80.00 Ry     beta= 0.70
     Davidson diagonalization with overlap
     ethr =  2.70E-03,  avg # of iterations =  1.8

     total cpu time spent up to now is       56.9 secs

     total energy              =     -58.01743530 Ry
     estimated scf accuracy    <       0.41217974 Ry

     iteration #  8     ecut=    80.00 Ry     beta= 0.70
     Davidson diagonalization with overlap
     ethr =  1.29E-03,  avg # of iterations =  5.8

     total cpu time spent up to now is       61.2 secs

     total energy              =     -58.12329899 Ry
     estimated scf accuracy    <       0.28560243 Ry

     iteration #  9     ecut=    80.00 Ry     beta= 0.70
     Davidson diagonalization with overlap
     ethr =  8.93E-04,  avg # of iterations =  3.5

     total cpu time spent up to now is       65.3 secs

     total energy              =     -58.03108185 Ry
     estimated scf accuracy    <       0.32131127 Ry

     iteration # 10     ecut=    80.00 Ry     beta= 0.70
     Davidson diagonalization with overlap
     ethr =  8.93E-04,  avg # of iterations =  3.7

     total cpu time spent up to now is       69.0 secs

     total energy              =     -58.02525541 Ry
     estimated scf accuracy    <       0.12146415 Ry

     iteration # 11     ecut=    80.00 Ry     beta= 0.70
     Davidson diagonalization with overlap
     ethr =  3.80E-04,  avg # of iterations =  9.3

     negative rho (up, down):  7.824E-06 0.000E+00

     total cpu time spent up to now is       77.5 secs

     total energy              =     -58.08861523 Ry
     estimated scf accuracy    <       0.08485988 Ry

     iteration # 12     ecut=    80.00 Ry     beta= 0.70
     Davidson diagonalization with overlap
     ethr =  2.65E-04,  avg # of iterations =  8.6

     negative rho (up, down):  4.997E-05 0.000E+00

     total cpu time spent up to now is       84.9 secs

     total energy              =     -58.06901058 Ry
     estimated scf accuracy    <       0.10991961 Ry

     iteration # 13     ecut=    80.00 Ry     beta= 0.70
     Davidson diagonalization with overlap
     ethr =  2.65E-04,  avg # of iterations =  1.2

     negative rho (up, down):  5.133E-05 0.000E+00

     total cpu time spent up to now is       88.0 secs

     total energy              =     -58.06858360 Ry
     estimated scf accuracy    <       0.04074249 Ry

     iteration # 14     ecut=    80.00 Ry     beta= 0.70
     Davidson diagonalization with overlap
     ethr =  1.27E-04,  avg # of iterations =  1.8

     negative rho (up, down):  2.352E-04 0.000E+00

     total cpu time spent up to now is       91.4 secs

     total energy              =     -58.06654754 Ry
     estimated scf accuracy    <       0.02842491 Ry

     iteration # 15     ecut=    80.00 Ry     beta= 0.70
     Davidson diagonalization with overlap
     ethr =  8.88E-05,  avg # of iterations =  3.2

     negative rho (up, down):  3.918E-04 0.000E+00

     total cpu time spent up to now is       97.2 secs

     total energy              =     -58.06566103 Ry
     estimated scf accuracy    <       0.01828042 Ry

     iteration # 16     ecut=    80.00 Ry     beta= 0.70
     Davidson diagonalization with overlap
     ethr =  5.71E-05,  avg # of iterations =  4.2

     negative rho (up, down):  9.973E-04 0.000E+00

     total cpu time spent up to now is      103.0 secs

     total energy              =     -58.06079430 Ry
     estimated scf accuracy    <       0.01236329 Ry

     iteration # 17     ecut=    80.00 Ry     beta= 0.70
     Davidson diagonalization with overlap
     c_bands:  1 eigenvalues not converged
     ethr =  3.86E-05,  avg # of iterations =  8.3

     negative rho (up, down):  1.502E-03 0.000E+00

     total cpu time spent up to now is      110.7 secs

     total energy              =     -58.06438920 Ry
     estimated scf accuracy    <       0.00185096 Ry

     iteration # 18     ecut=    80.00 Ry     beta= 0.70
     Davidson diagonalization with overlap
     c_bands:  2 eigenvalues not converged
     c_bands:  1 eigenvalues not converged
     c_bands:  1 eigenvalues not converged
     c_bands:  1 eigenvalues not converged
     ethr =  5.78E-06,  avg # of iterations = 15.1

     negative rho (up, down):  9.207E-04 0.000E+00

     total cpu time spent up to now is      125.6 secs

     total energy              =     -58.06728423 Ry
     estimated scf accuracy    <       0.00132728 Ry

     iteration # 19     ecut=    80.00 Ry     beta= 0.70
     Davidson diagonalization with overlap
     c_bands:  1 eigenvalues not converged
     ethr =  4.15E-06,  avg # of iterations =  7.1

     negative rho (up, down):  3.624E-04 0.000E+00

     total cpu time spent up to now is      130.5 secs

     total energy              =     -58.06682861 Ry
     estimated scf accuracy    <       0.00097958 Ry

     iteration # 20     ecut=    80.00 Ry     beta= 0.70
     Davidson diagonalization with overlap
     ethr =  3.06E-06,  avg # of iterations =  6.9

     negative rho (up, down):  3.496E-04 0.000E+00

     total cpu time spent up to now is      136.6 secs

     total energy              =     -58.06701404 Ry
     estimated scf accuracy    <       0.00000410 Ry

     iteration # 21     ecut=    80.00 Ry     beta= 0.70
     Davidson diagonalization with overlap
     ethr =  1.28E-08,  avg # of iterations = 27.9

     negative rho (up, down):  3.842E-04 0.000E+00

     total cpu time spent up to now is      171.9 secs

     total energy              =     -58.06716805 Ry
     estimated scf accuracy    <       0.00006859 Ry

     iteration # 22     ecut=    80.00 Ry     beta= 0.70
     Davidson diagonalization with overlap
     ethr =  1.28E-08,  avg # of iterations =  7.9

     negative rho (up, down):  3.777E-04 0.000E+00

     total cpu time spent up to now is      183.2 secs

     total energy              =     -58.06717703 Ry
     estimated scf accuracy    <       0.00000229 Ry

     iteration # 23     ecut=    80.00 Ry     beta= 0.70
     Davidson diagonalization with overlap
     ethr =  7.16E-09,  avg # of iterations =  2.6

     negative rho (up, down):  3.804E-04 0.000E+00

     total cpu time spent up to now is      187.0 secs

     total energy              =     -58.06717644 Ry
     estimated scf accuracy    <       0.00000185 Ry

     iteration # 24     ecut=    80.00 Ry     beta= 0.70
     Davidson diagonalization with overlap
     ethr =  5.79E-09,  avg # of iterations =  4.6

     negative rho (up, down):  3.796E-04 0.000E+00

     total cpu time spent up to now is      191.5 secs

     total energy              =     -58.06717688 Ry
     estimated scf accuracy    <       0.00000012 Ry

     iteration # 25     ecut=    80.00 Ry     beta= 0.70
     Davidson diagonalization with overlap
     ethr =  3.68E-10,  avg # of iterations = 13.2

     negative rho (up, down):  3.794E-04 0.000E+00

     total cpu time spent up to now is      208.7 secs

     total energy              =     -58.06717728 Ry
     estimated scf accuracy    <       0.00000007 Ry

     iteration # 26     ecut=    80.00 Ry     beta= 0.70
     Davidson diagonalization with overlap
     ethr =  2.11E-10,  avg # of iterations =  2.1

     negative rho (up, down):  3.796E-04 0.000E+00

     total cpu time spent up to now is      213.1 secs

     total energy              =     -58.06717727 Ry
     estimated scf accuracy    <       0.00000003 Ry

     iteration # 27     ecut=    80.00 Ry     beta= 0.70
     Davidson diagonalization with overlap
     ethr =  8.56E-11,  avg # of iterations =  5.6

     negative rho (up, down):  3.797E-04 0.000E+00

     total cpu time spent up to now is      219.3 secs

     total energy              =     -58.06717728 Ry
     estimated scf accuracy    <       0.00000001 Ry

     iteration # 28     ecut=    80.00 Ry     beta= 0.70
     Davidson diagonalization with overlap
     ethr =  4.13E-11,  avg # of iterations =  3.2

     negative rho (up, down):  3.800E-04 0.000E+00

     total cpu time spent up to now is      223.5 secs

     End of self-consistent calculation

          k = 0.0000 0.0000 0.0000 (  6489 PWs)   bands (ev):

   -34.8469 -24.5025 -24.0030 -24.0030 -23.6563 -23.6563 -14.4759 -10.3770
   -10.3770  -8.6882  -1.8241  -0.2755   0.3062   0.3062   4.9696   7.3837
     7.9679   8.1637   8.4844   8.4845

          k = 0.0000 0.0962 0.0000 (  6493 PWs)   bands (ev):

   -34.8229 -26.1387 -25.8631 -24.2609 -21.5636 -21.3608 -14.3409 -10.5788
   -10.5612  -8.7886  -2.4895  -0.5154   0.8769   1.5873   4.8542   7.2804
     7.9698   8.1338   8.1719   8.3730

          k = 0.0000 0.1925 0.0000 (  6481 PWs)   bands (ev):

   -34.7484 -28.0626 -27.5738 -23.8278 -19.2513 -18.7310 -14.0598 -11.3102
   -10.9211  -8.5809  -2.8091  -1.1606   2.2861   2.8482   4.3787   6.6920
     7.3414   8.0177   8.6867   8.9682

          k = 0.0000 0.2887 0.0000 (  6429 PWs)   bands (ev):

   -34.6181 -29.6577 -28.9336 -23.1188 -17.2895 -16.2964 -14.2585 -11.6437
   -10.7807  -7.8542  -2.5097  -1.9499   2.0885   3.4643   3.8574   5.9574
     6.9937   7.6358   9.3057   9.9292

          k = 0.0000 0.3849 0.0000 (  6414 PWs)   bands (ev):

   -34.4323 -30.8991 -29.9178 -22.1665 -16.2494 -16.2393 -13.3963 -10.8405
    -9.5537  -6.7676  -3.0205  -1.5894   0.8350   2.8206   3.0037   5.0524
     6.1629   7.4888   8.2666  11.3046

          k = 0.0000 0.4811 0.0000 (  6418 PWs)   bands (ev):

   -34.2232 -31.7442 -30.5130 -21.0369 -17.7155 -15.9636 -11.7338 -10.0892
    -7.6520  -5.3697  -3.7896  -1.0918   0.5480   1.3011   1.7398   4.0880
     4.6867   6.0824   9.5555  13.2202

          k = 0.0000-0.5774 0.0000 (  6386 PWs)   bands (ev):

   -34.1136 -32.0660 -30.7121 -20.1949 -18.7049 -15.9334 -10.8513 -10.0692
    -6.5965  -4.4124  -4.1971  -0.4906  -0.4509   0.4141   2.0766   3.1468
     3.9459   5.7303   9.8777  14.4369

          k = 0.0833 0.1443 0.0000 (  6473 PWs)   bands (ev):

   -34.7735 -27.6031 -27.1181 -23.9836 -19.8114 -19.4805 -14.1141 -11.3237
   -10.5579  -8.7480  -2.8175  -0.9606   1.9371   2.6656   4.5366   6.9870
     7.1766   8.0629   8.5185   8.7819

          k = 0.0833 0.2406 0.0000 (  6444 PWs)   bands (ev):

   -34.6703 -29.1768 -28.4475 -23.4188 -17.7843 -17.1906 -13.9354 -12.2442
   -10.3810  -8.3116  -2.6864  -1.7160   2.7042   3.5108   3.8311   6.2351
     6.5490   8.0094   9.1359   9.5794

          k = 0.0833 0.3368 0.0000 (  6420 PWs)   bands (ev):

   -34.5086 -30.5142 -29.5272 -22.5947 -16.3999 -15.8302 -13.9524 -11.8800
    -9.5435  -7.4274  -2.6943  -1.9750   1.4198   3.1366   3.8940   5.3953
     6.1830   7.6703   8.3121  10.6394

          k = 0.0833 0.4330 0.0000 (  6423 PWs)   bands (ev):

   -34.2973 -31.5285 -30.2705 -21.5641 -16.9908 -15.8682 -12.5047 -10.6111
    -8.1085  -6.0565  -3.5368  -1.2369   0.3821   2.1245   2.8316   4.4129
     4.7454   6.3716   9.4837  12.2134

          k = 0.0833 0.5292 0.0000 (  6418 PWs)   bands (ev):

   -34.1064 -32.1249 -30.6476 -20.4966 -18.2762 -15.8520 -11.2075 -10.0670
    -6.6628  -4.5573  -4.1957  -0.8209   0.0834   0.7586   2.3151   3.1704
     3.8380   5.2468  10.5068  14.0117

          k = 0.1667 0.2887 0.0000 (  6421 PWs)   bands (ev):

   -34.5332 -30.3963 -29.3417 -22.7570 -16.2083 -16.0947 -13.6956 -12.7183
    -9.1280  -7.8959  -2.4899  -2.2628   2.2224   2.4805   4.8776   5.2429
     6.2408   7.1789   8.4210  10.4649

          k = 0.1667 0.3849 0.0000 (  6439 PWs)   bands (ev):

   -34.3328 -31.4533 -30.0679 -21.8786 -16.5100 -15.5737 -13.0714 -11.4414
    -7.6494  -6.8478  -3.2895  -1.5445   0.8261   1.8925   3.6735   4.2991
     5.8039   6.5803   8.4648  11.7015

          k = 0.1667 0.4811 0.0000 (  6433 PWs)   bands (ev):

   -34.0915 -32.2313 -30.5301 -20.9063 -17.5303 -15.7228 -11.8372 -10.2944
    -6.6433  -4.7204  -4.0590  -0.8107  -0.0870   1.0474   2.5915   3.1879
     4.3486   5.2350  10.5894  12.9493

          k = 0.1667 0.5774 0.0000 (  6408 PWs)   bands (ev):

   -33.9499 -32.5548 -30.6878 -20.3226 -18.1581 -15.8294 -11.1117 -10.1394
    -5.7688  -4.7415  -3.4120  -0.5109  -0.1008   0.4262   1.4301   3.0842
     3.9140   4.4753  11.7217  13.4211

          k = 0.2500 0.4330 0.0000 (  6437 PWs)   bands (ev):

   -34.0837 -32.2803 -30.4755 -21.0687 -17.1258 -15.7047 -12.1411 -10.4909
    -6.4771  -5.0045  -3.7460  -0.9566  -0.0799   0.9957   2.3051   3.2766
     4.4553   6.6082   9.2992  12.9914

          k = 0.2500 0.5292 0.0000 (  6421 PWs)   bands (ev):

   -33.7977 -32.8716 -30.6924 -20.4380 -17.5126 -16.1251 -11.1893 -10.2173
    -5.4163  -4.4007  -2.8238  -0.7944  -0.4501   0.5524   1.2884   2.3534
     2.8297   6.7336  10.8908  12.9180

          k = 0.3333 0.5774 0.0000 (  6408 PWs)   bands (ev):

   -33.3959 -33.3959 -30.7478 -20.3050 -16.8901 -16.8901 -10.5690 -10.5690
    -4.5690  -4.5690  -2.2145  -1.2223   0.4173   0.6296   0.6297   1.6658
     1.6658   8.0579  11.2686  11.2688

     the Fermi energy is     4.7611 ev

!    total energy              =     -58.06717728 Ry
     estimated scf accuracy    <          2.3E-09 Ry
     smearing contrib. (-TS)   =       0.00114150 Ry
     internal energy E=F+TS    =     -58.06831878 Ry

     The total energy is F=E-TS. E is the sum of the following terms:
     one-electron contribution =   -2233.49334795 Ry
     hartree contribution      =    1128.66218286 Ry
     xc contribution           =     -44.16133528 Ry
     ewald contribution        =    1090.92418159 Ry

     convergence has been achieved in  28 iterations

     negative rho (up, down):  3.800E-04 0.000E+00

     Forces acting on atoms (cartesian axes, Ry/au):

     atom    1 type  1   force =     0.00000000    0.00000000  -24.05547488
     atom    2 type  1   force =     0.00000000    0.00000000   -2.42968494
     atom    3 type  1   force =     0.00000000    0.00000000  -23.40148104
     atom    4 type  1   force =     0.00000000    0.00000000   21.28684329
     atom    5 type  1   force =     0.00000000    0.00000000  -21.28684716
     atom    6 type  1   force =     0.00000000    0.00000000   23.40151013
     atom    7 type  1   force =     0.00000000   -0.00000000    2.42968460
     atom    8 type  1   force =     0.00000000    0.00000000   24.05544999

     Total force =    56.308586     Total SCF correction =     0.000181


     Computing stress (Cartesian axis) and pressure


     negative rho (up, down):  3.800E-04 0.000E+00
          total   stress  (Ry/bohr**3)                   (kbar)     P=     9922.47
   0.02877495   0.00000000   0.00000000         4232.94        0.00        0.00
   0.00000000   0.02877495   0.00000000            0.00     4232.94        0.00
   0.00000000   0.00000000   0.14480484            0.00        0.00    21301.53


     Writing all to output data dir /run/media/rfa/SATA/Skripsi/DFT/Graphene-copy/tmp/gr-abc-4L.save/ :
     XML data file, charge density, pseudopotentials, collected wavefunctions

     init_run     :      2.12s CPU      2.00s WALL (       1 calls)
     electrons    :    276.18s CPU    221.37s WALL (       1 calls)
     forces       :      0.92s CPU      0.67s WALL (       1 calls)
     stress       :      3.28s CPU      2.36s WALL (       1 calls)

     Called by init_run:
     wfcinit      :      1.75s CPU      1.50s WALL (       1 calls)
     potinit      :      0.02s CPU      0.03s WALL (       1 calls)
     hinit0       :      0.16s CPU      0.28s WALL (       1 calls)

     Called by electrons:
     c_bands      :    254.49s CPU    202.68s WALL (      28 calls)
     sum_band     :     19.62s CPU     16.66s WALL (      28 calls)
     v_of_rho     :      0.51s CPU      0.57s WALL (      29 calls)
     newd         :      1.28s CPU      1.16s WALL (      29 calls)
     mix_rho      :      0.29s CPU      0.28s WALL (      28 calls)

     Called by c_bands:
     init_us_2    :      2.15s CPU      1.47s WALL (    1121 calls)
     cegterg      :    247.97s CPU    198.20s WALL (     550 calls)

     Called by *egterg:
     cdiaghg      :     18.91s CPU     17.01s WALL (    4262 calls)
     h_psi        :    128.75s CPU    110.27s WALL (    4281 calls)
     s_psi        :      6.99s CPU      5.48s WALL (    4281 calls)
     g_psi        :      0.76s CPU      0.34s WALL (    3712 calls)

     Called by h_psi:
     h_psi:calbec :     51.58s CPU     41.68s WALL (    4281 calls)
     vloc_psi     :     68.20s CPU     61.33s WALL (    4281 calls)
     add_vuspsi   :      8.33s CPU      6.79s WALL (    4281 calls)

     General routines
     calbec       :     63.40s CPU     51.47s WALL (    5136 calls)
     fft          :      0.45s CPU      0.59s WALL (     344 calls)
     ffts         :      0.03s CPU      0.02s WALL (      28 calls)
     fftw         :     71.46s CPU     64.28s WALL (  102714 calls)

     Parallel routines

     PWSCF        :   4m42.71s CPU   3m47.19s WALL


   This run was terminated on:  15:50:33  16Apr2025            

=------------------------------------------------------------------------------=
   JOB DONE.
=------------------------------------------------------------------------------=
--------------------------------------------------------------------------
prterun has exited due to process rank 0 with PID 11842 on node archlinux exiting
improperly. There are three reasons this could occur:

1. this process did not call "init" before exiting, but others in the
job did. This can cause a job to hang indefinitely while it waits for
all processes to call "init". By rule, if one process calls "init",
then ALL processes must call "init" prior to termination.

2. this process called "init", but exited without calling "finalize".
By rule, all processes that call "init" MUST call "finalize" prior to
exiting or it will be considered an "abnormal termination"

3. this process called "MPI_Abort" or "prte_abort" and the mca
parameter prte_create_session_dirs is set to false. In this case, the
run-time cannot detect that the abort call was an abnormal
termination. Hence, the only error message you will receive is this
one.

This may have caused other processes in the application to be
terminated by signals sent by prterun (as reported here).

You can avoid this message by specifying -quiet on the prterun command
line.
--------------------------------------------------------------------------
