
     Program PWSCF v.7.4.1 starts on 16Apr2025 at 15:29:14 

     This program is part of the open-source Quantum ESPRESSO suite
     for quantum simulation of materials; please cite
         "P. Giannozzi et al., J. Phys.:Condens. Matter 21 395502 (2009);
         "P. Giannozzi et al., J. Phys.:Condens. Matter 29 465901 (2017);
         "P. Giannozzi et al., J. Chem. Phys. 152 154105 (2020);
          URL http://www.quantum-espresso.org", 
     in publications or presentations arising from this work. More details at
     http://www.quantum-espresso.org/quote

     Parallel version (MPI), running on     7 processors

     MPI processes distributed on     1 nodes
     14443 MiB available memory on the printing compute node when the environment starts

     Waiting for input...
     Reading input from standard input

     Current dimensions of program PWSCF are:
     Max number of different atomic species (ntypx) = 10
     Max number of k-points (npk) =  40000
     Max angular momentum in pseudopotentials (lmaxx) =  4

     R & G space division:  proc/nbgrp/npool/nimage =       7
     Subspace diagonalization in iterative solution of the eigenvalue problem:
     a serial algorithm will be used


     Parallelization info
     --------------------
     sticks:   dense  smooth     PW     G-vecs:    dense   smooth      PW
     Min          37      37     12                 3088     3088     566
     Max          38      38     13                 3095     3095     589
     Sum         265     265     85                21637    21637    3993

     Using Slab Decomposition



     bravais-lattice index     =            4
     lattice parameter (alat)  =       4.6561  a.u.
     unit-cell volume          =     532.1899 (a.u.)^3
     number of atoms/cell      =            8
     number of atomic types    =            1
     number of electrons       =        32.00
     number of Kohn-Sham states=           20
     kinetic-energy cutoff     =      45.0000  Ry
     charge density cutoff     =     180.0000  Ry
     scf convergence threshold =      1.0E-08
     mixing beta               =       0.7000
     number of iterations used =            8  plain     mixing
     Exchange-correlation= PBE
                           (   1   4   3   4   0   0   0)

     celldm(1)=   4.656107  celldm(2)=   0.000000  celldm(3)=   6.087896
     celldm(4)=   0.000000  celldm(5)=   0.000000  celldm(6)=   0.000000

     crystal axes: (cart. coord. in units of alat)
               a(1) = (   1.000000   0.000000   0.000000 )  
               a(2) = (  -0.500000   0.866025   0.000000 )  
               a(3) = (   0.000000   0.000000   6.087896 )  

     reciprocal axes: (cart. coord. in units 2 pi/alat)
               b(1) = (  1.000000  0.577350 -0.000000 )  
               b(2) = (  0.000000  1.154701  0.000000 )  
               b(3) = (  0.000000 -0.000000  0.164260 )  


     PseudoPot. # 1 for C  read from file:
     /run/media/rfa/SATA/Skripsi/DFT/Graphene-copy/pseudo/C.pbe-n-rrkjus_psl.0.1.UPF
     MD5 check sum: 96a6a315177d77e6c95bf6fd3870f9e3
     Pseudo is Ultrasoft + core correction, Zval =  4.0
     Generated using &quot;atomic&quot; code by A. Dal Corso  v.6.3MaX
     Using radial grid of 1073 points,  4 beta functions with: 
                l(1) =   0
                l(2) =   0
                l(3) =   1
                l(4) =   1
     Q(r) pseudized with 0 coefficients 


     atomic species   valence    mass     pseudopotential
     C                 4.00    12.01070     C ( 1.00)

      6 Sym. Ops. (no inversion) found



   Cartesian axes

     site n.     atom                  positions (alat units)
         1        C      tau(   1) = (   0.0000000   0.5773503   3.0439478  )
         2        C      tau(   2) = (   0.5000000   0.2886751   3.0439478  )
         3        C      tau(   3) = (   0.0000000   0.0000000   3.2468777  )
         4        C      tau(   4) = (   0.0000000   0.5773503   3.2468777  )
         5        C      tau(   5) = (   0.5000000   0.2886751   3.4498075  )
         6        C      tau(   6) = (   0.0000000   0.0000000   3.4498075  )
         7        C      tau(   7) = (   0.0000000   0.5773503   3.6527374  )
         8        C      tau(   8) = (   0.5000000   0.2886751   3.6527374  )

     number of k points=    19  Marzari-Vanderbilt smearing, width (Ry)=  0.0200
                       cart. coord. in units 2pi/alat
        k(    1) = (   0.0000000   0.0000000   0.0000000), wk =   0.0138889
        k(    2) = (   0.0000000   0.0962250   0.0000000), wk =   0.0833333
        k(    3) = (   0.0000000   0.1924501   0.0000000), wk =   0.0833333
        k(    4) = (   0.0000000   0.2886751   0.0000000), wk =   0.0833333
        k(    5) = (   0.0000000   0.3849002   0.0000000), wk =   0.0833333
        k(    6) = (   0.0000000   0.4811252   0.0000000), wk =   0.0833333
        k(    7) = (   0.0000000  -0.5773503   0.0000000), wk =   0.0416667
        k(    8) = (   0.0833333   0.1443376   0.0000000), wk =   0.0833333
        k(    9) = (   0.0833333   0.2405626   0.0000000), wk =   0.1666667
        k(   10) = (   0.0833333   0.3367877   0.0000000), wk =   0.1666667
        k(   11) = (   0.0833333   0.4330127   0.0000000), wk =   0.1666667
        k(   12) = (   0.0833333   0.5292377   0.0000000), wk =   0.1666667
        k(   13) = (   0.1666667   0.2886751   0.0000000), wk =   0.0833333
        k(   14) = (   0.1666667   0.3849002   0.0000000), wk =   0.1666667
        k(   15) = (   0.1666667   0.4811252   0.0000000), wk =   0.1666667
        k(   16) = (   0.1666667   0.5773503   0.0000000), wk =   0.0833333
        k(   17) = (   0.2500000   0.4330127   0.0000000), wk =   0.0833333
        k(   18) = (   0.2500000   0.5292377   0.0000000), wk =   0.1666667
        k(   19) = (   0.3333333   0.5773503   0.0000000), wk =   0.0277778

     Dense  grid:    21637 G-vectors     FFT dimensions: (  20,  20, 125)

     Estimated max dynamical RAM per process >       7.93 MB

     Estimated total dynamical RAM >      55.50 MB

     Check: negative core charge=   -0.000017

     Initial potential from superposition of free atoms

     starting charge      31.9997, renormalised to      32.0000

     negative rho (up, down):  3.579E-04 0.000E+00
     Starting wfcs are   32 randomized atomic wfcs

     total cpu time spent up to now is        0.6 secs

     per-process dynamical memory:    11.7 Mb

     Self-consistent Calculation

     iteration #  1     ecut=    45.00 Ry     beta= 0.70
     Davidson diagonalization with overlap
     ethr =  1.00E-02,  avg # of iterations =  8.8

     negative rho (up, down):  4.084E-03 0.000E+00

     total cpu time spent up to now is        2.8 secs

     total energy              =     -50.29045844 Ry
     estimated scf accuracy    <      17.93448156 Ry

     iteration #  2     ecut=    45.00 Ry     beta= 0.70
     Davidson diagonalization with overlap
     c_bands:  3 eigenvalues not converged
     c_bands:  2 eigenvalues not converged
     c_bands:  1 eigenvalues not converged
     c_bands:  1 eigenvalues not converged
     ethr =  1.00E-02,  avg # of iterations = 17.8

     total cpu time spent up to now is       12.2 secs

     total energy              =     -33.21918285 Ry
     estimated scf accuracy    <     110.95365458 Ry

     iteration #  3     ecut=    45.00 Ry     beta= 0.70
     Davidson diagonalization with overlap
     c_bands:  3 eigenvalues not converged
     c_bands:  1 eigenvalues not converged
     c_bands:  3 eigenvalues not converged
     ethr =  1.00E-02,  avg # of iterations = 14.5

     total cpu time spent up to now is       21.0 secs

     total energy              =     -57.87209637 Ry
     estimated scf accuracy    <       3.37275253 Ry

     iteration #  4     ecut=    45.00 Ry     beta= 0.70
     Davidson diagonalization with overlap
     ethr =  1.00E-02,  avg # of iterations =  3.3

     total cpu time spent up to now is       24.1 secs

     total energy              =     -58.01564890 Ry
     estimated scf accuracy    <       1.40560241 Ry

     iteration #  5     ecut=    45.00 Ry     beta= 0.70
     Davidson diagonalization with overlap
     ethr =  4.39E-03,  avg # of iterations =  4.0

     total cpu time spent up to now is       26.9 secs

     total energy              =     -58.01695211 Ry
     estimated scf accuracy    <       2.27303268 Ry

     iteration #  6     ecut=    45.00 Ry     beta= 0.70
     Davidson diagonalization with overlap
     ethr =  4.39E-03,  avg # of iterations =  1.4

     total cpu time spent up to now is       28.0 secs

     total energy              =     -58.01778885 Ry
     estimated scf accuracy    <       0.89976230 Ry

     iteration #  7     ecut=    45.00 Ry     beta= 0.70
     Davidson diagonalization with overlap
     ethr =  2.81E-03,  avg # of iterations =  1.2

     total cpu time spent up to now is       29.3 secs

     total energy              =     -58.00917623 Ry
     estimated scf accuracy    <       0.53457950 Ry

     iteration #  8     ecut=    45.00 Ry     beta= 0.70
     Davidson diagonalization with overlap
     ethr =  1.67E-03,  avg # of iterations =  2.2

     total cpu time spent up to now is       31.2 secs

     total energy              =     -58.02991811 Ry
     estimated scf accuracy    <       0.43237721 Ry

     iteration #  9     ecut=    45.00 Ry     beta= 0.70
     Davidson diagonalization with overlap
     ethr =  1.35E-03,  avg # of iterations =  1.5

     total cpu time spent up to now is       32.8 secs

     total energy              =     -58.08779398 Ry
     estimated scf accuracy    <       0.41085947 Ry

     iteration # 10     ecut=    45.00 Ry     beta= 0.70
     Davidson diagonalization with overlap
     ethr =  1.28E-03,  avg # of iterations =  1.0

     total cpu time spent up to now is       34.3 secs

     total energy              =     -57.83017620 Ry
     estimated scf accuracy    <       0.44739990 Ry

     iteration # 11     ecut=    45.00 Ry     beta= 0.70
     Davidson diagonalization with overlap
     ethr =  1.28E-03,  avg # of iterations =  4.7

     negative rho (up, down):  1.921E-03 0.000E+00

     total cpu time spent up to now is       36.6 secs

     total energy              =     -57.85051404 Ry
     estimated scf accuracy    <       0.05299346 Ry

     iteration # 12     ecut=    45.00 Ry     beta= 0.70
     Davidson diagonalization with overlap
     c_bands:  1 eigenvalues not converged
     c_bands:  2 eigenvalues not converged
     c_bands:  1 eigenvalues not converged
     c_bands:  1 eigenvalues not converged
     c_bands:  1 eigenvalues not converged
     c_bands:  1 eigenvalues not converged
     c_bands:  2 eigenvalues not converged
     c_bands:  1 eigenvalues not converged
     c_bands:  1 eigenvalues not converged
     c_bands:  1 eigenvalues not converged
     c_bands:  1 eigenvalues not converged
     ethr =  1.66E-04,  avg # of iterations = 18.8

     negative rho (up, down):  1.597E-03 0.000E+00

     total cpu time spent up to now is       44.6 secs

     total energy              =     -57.91426374 Ry
     estimated scf accuracy    <       0.06658253 Ry

     iteration # 13     ecut=    45.00 Ry     beta= 0.70
     Davidson diagonalization with overlap
     ethr =  1.66E-04,  avg # of iterations =  2.4

     negative rho (up, down):  1.348E-02 0.000E+00

     total cpu time spent up to now is       47.1 secs

     total energy              =     -57.93140614 Ry
     estimated scf accuracy    <       0.03315063 Ry

     iteration # 14     ecut=    45.00 Ry     beta= 0.70
     Davidson diagonalization with overlap
     ethr =  1.04E-04,  avg # of iterations =  8.5

     negative rho (up, down):  2.015E-03 0.000E+00

     total cpu time spent up to now is       50.1 secs

     total energy              =     -57.93366321 Ry
     estimated scf accuracy    <       0.12089739 Ry

     iteration # 15     ecut=    45.00 Ry     beta= 0.70
     Davidson diagonalization with overlap
     ethr =  1.04E-04,  avg # of iterations =  1.5

     negative rho (up, down):  6.299E-03 0.000E+00

     total cpu time spent up to now is       51.6 secs

     total energy              =     -57.94820372 Ry
     estimated scf accuracy    <       0.08680619 Ry

     iteration # 16     ecut=    45.00 Ry     beta= 0.70
     Davidson diagonalization with overlap
     ethr =  1.04E-04,  avg # of iterations =  1.6

     negative rho (up, down):  2.113E-02 0.000E+00

     total cpu time spent up to now is       53.7 secs

     total energy              =     -57.92177763 Ry
     estimated scf accuracy    <       0.14605335 Ry

     iteration # 17     ecut=    45.00 Ry     beta= 0.70
     Davidson diagonalization with overlap
     ethr =  1.04E-04,  avg # of iterations =  4.2

     negative rho (up, down):  1.465E-03 0.000E+00

     total cpu time spent up to now is       55.7 secs

     total energy              =     -57.94897132 Ry
     estimated scf accuracy    <       0.06747864 Ry

     iteration # 18     ecut=    45.00 Ry     beta= 0.70
     Davidson diagonalization with overlap
     c_bands:  1 eigenvalues not converged
     c_bands:  1 eigenvalues not converged
     ethr =  1.04E-04,  avg # of iterations = 13.0

     negative rho (up, down):  1.888E-03 0.000E+00

     total cpu time spent up to now is       59.9 secs

     total energy              =     -57.92171502 Ry
     estimated scf accuracy    <       0.14096903 Ry

     iteration # 19     ecut=    45.00 Ry     beta= 0.70
     Davidson diagonalization with overlap
     ethr =  1.04E-04,  avg # of iterations =  6.7

     total cpu time spent up to now is       63.5 secs

     total energy              =     -57.90799328 Ry
     estimated scf accuracy    <       0.05574933 Ry

     iteration # 20     ecut=    45.00 Ry     beta= 0.70
     Davidson diagonalization with overlap
     c_bands:  3 eigenvalues not converged
     c_bands:  2 eigenvalues not converged
     c_bands:  3 eigenvalues not converged
     c_bands:  2 eigenvalues not converged
     c_bands:  1 eigenvalues not converged
     c_bands:  1 eigenvalues not converged
     ethr =  1.04E-04,  avg # of iterations = 16.7

     total cpu time spent up to now is       68.8 secs

     total energy              =     -57.91830968 Ry
     estimated scf accuracy    <       0.02396592 Ry

     iteration # 21     ecut=    45.00 Ry     beta= 0.70
     Davidson diagonalization with overlap
     ethr =  7.49E-05,  avg # of iterations =  4.3

     negative rho (up, down):  1.818E-07 0.000E+00

     total cpu time spent up to now is       71.2 secs

     total energy              =     -57.91758546 Ry
     estimated scf accuracy    <       0.01229031 Ry

     iteration # 22     ecut=    45.00 Ry     beta= 0.70
     Davidson diagonalization with overlap
     ethr =  3.84E-05,  avg # of iterations =  4.6

     negative rho (up, down):  2.412E-06 0.000E+00

     total cpu time spent up to now is       73.4 secs

     total energy              =     -57.91532483 Ry
     estimated scf accuracy    <       0.00923962 Ry

     iteration # 23     ecut=    45.00 Ry     beta= 0.70
     Davidson diagonalization with overlap
     c_bands:  1 eigenvalues not converged
     ethr =  2.89E-05,  avg # of iterations =  8.2

     negative rho (up, down):  1.398E-04 0.000E+00

     total cpu time spent up to now is       76.7 secs

     total energy              =     -57.91297019 Ry
     estimated scf accuracy    <       0.00519957 Ry

     iteration # 24     ecut=    45.00 Ry     beta= 0.70
     Davidson diagonalization with overlap
     ethr =  1.62E-05,  avg # of iterations = 10.8

     negative rho (up, down):  2.025E-03 0.000E+00

     total cpu time spent up to now is       81.0 secs

     total energy              =     -57.91318113 Ry
     estimated scf accuracy    <       0.00067754 Ry

     iteration # 25     ecut=    45.00 Ry     beta= 0.70
     Davidson diagonalization with overlap
     c_bands:  2 eigenvalues not converged
     c_bands:  1 eigenvalues not converged
     c_bands:  1 eigenvalues not converged
     c_bands:  1 eigenvalues not converged
     c_bands:  1 eigenvalues not converged
     ethr =  2.12E-06,  avg # of iterations = 16.5

     negative rho (up, down):  2.541E-03 0.000E+00

     total cpu time spent up to now is       87.1 secs

     total energy              =     -57.91357820 Ry
     estimated scf accuracy    <       0.00007634 Ry

     iteration # 26     ecut=    45.00 Ry     beta= 0.70
     Davidson diagonalization with overlap
     ethr =  2.39E-07,  avg # of iterations =  6.0

     negative rho (up, down):  2.540E-03 0.000E+00

     total cpu time spent up to now is       91.9 secs

     total energy              =     -57.91364154 Ry
     estimated scf accuracy    <       0.00002708 Ry

     iteration # 27     ecut=    45.00 Ry     beta= 0.70
     Davidson diagonalization with overlap
     ethr =  8.46E-08,  avg # of iterations =  4.4

     negative rho (up, down):  2.567E-03 0.000E+00

     total cpu time spent up to now is       94.5 secs

     total energy              =     -57.91364088 Ry
     estimated scf accuracy    <       0.00001937 Ry

     iteration # 28     ecut=    45.00 Ry     beta= 0.70
     Davidson diagonalization with overlap
     ethr =  6.05E-08,  avg # of iterations =  3.4

     negative rho (up, down):  2.551E-03 0.000E+00

     total cpu time spent up to now is       96.9 secs

     total energy              =     -57.91364123 Ry
     estimated scf accuracy    <       0.00000762 Ry

     iteration # 29     ecut=    45.00 Ry     beta= 0.70
     Davidson diagonalization with overlap
     ethr =  2.38E-08,  avg # of iterations =  5.9

     negative rho (up, down):  2.555E-03 0.000E+00

     total cpu time spent up to now is      100.1 secs

     total energy              =     -57.91364567 Ry
     estimated scf accuracy    <       0.00000488 Ry

     iteration # 30     ecut=    45.00 Ry     beta= 0.70
     Davidson diagonalization with overlap
     ethr =  1.52E-08,  avg # of iterations =  2.3

     negative rho (up, down):  2.555E-03 0.000E+00

     total cpu time spent up to now is      102.8 secs

     total energy              =     -57.91364588 Ry
     estimated scf accuracy    <       0.00000096 Ry

     iteration # 31     ecut=    45.00 Ry     beta= 0.70
     Davidson diagonalization with overlap
     ethr =  2.98E-09,  avg # of iterations =  6.8

     negative rho (up, down):  2.555E-03 0.000E+00

     total cpu time spent up to now is      107.0 secs

     total energy              =     -57.91364687 Ry
     estimated scf accuracy    <       0.00000009 Ry

     iteration # 32     ecut=    45.00 Ry     beta= 0.70
     Davidson diagonalization with overlap
     ethr =  2.78E-10,  avg # of iterations =  8.1

     negative rho (up, down):  2.555E-03 0.000E+00

     total cpu time spent up to now is      112.1 secs

     total energy              =     -57.91364701 Ry
     estimated scf accuracy    <       0.00000002 Ry

     iteration # 33     ecut=    45.00 Ry     beta= 0.70
     Davidson diagonalization with overlap
     ethr =  4.78E-11,  avg # of iterations =  5.8

     negative rho (up, down):  2.555E-03 0.000E+00

     total cpu time spent up to now is      116.1 secs

     End of self-consistent calculation

          k = 0.0000 0.0000 0.0000 (  2629 PWs)   bands (ev):

   -34.8865 -24.5073 -24.0874 -24.0874 -23.7311 -23.7311 -14.4052 -10.4547
   -10.4547  -8.6641  -1.6246  -0.3571   0.2407   0.2407   4.8409   7.3823
     7.4468   7.8256   8.4322   8.4322

          k = 0.0000 0.0962 0.0000 (  2663 PWs)   bands (ev):

   -34.8636 -26.2071 -25.9429 -24.2847 -21.6452 -21.4391 -14.2760 -10.6564
   -10.6333  -8.7649  -2.3782  -0.5948   0.8110   1.5769   4.7288   7.3498
     7.5812   7.9266   8.0382   8.0800

          k = 0.0000 0.1925 0.0000 (  2691 PWs)   bands (ev):

   -34.7912 -28.1313 -27.6538 -23.8548 -19.3371 -18.8107 -14.0092 -11.3386
   -10.9972  -8.5772  -2.7461  -1.2350   2.2194   2.8420   4.2678   6.6267
     7.2852   8.0879   8.2083   8.6253

          k = 0.0000 0.2887 0.0000 (  2687 PWs)   bands (ev):

   -34.6607 -29.7243 -29.0133 -23.1413 -17.3787 -16.3790 -14.2226 -11.6061
   -10.8541  -7.8673  -2.4836  -1.9986   2.0669   3.3988   3.7960   5.8709
     6.9362   7.6634   9.1316   9.6171

          k = 0.0000 0.3849 0.0000 (  2706 PWs)   bands (ev):

   -34.4772 -30.9641 -29.9977 -22.1905 -16.3310 -16.2873 -13.3836 -10.7893
    -9.6261  -6.8002  -3.0757  -1.5859   0.8018   2.7579   2.9832   4.9811
     6.1479   7.4359   8.2092  10.8711

          k = 0.0000 0.4811 0.0000 (  2702 PWs)   bands (ev):

   -34.2694 -31.8073 -30.5923 -21.0632 -17.7278 -16.0547 -11.6822 -10.0514
    -7.7258  -5.4195  -3.8460  -1.1435   0.4983   1.2412   1.7877   4.0495
     4.6670   6.0016   9.4996  12.8516

          k = 0.0000-0.5774 0.0000 (  2716 PWs)   bands (ev):

   -34.1620 -32.1293 -30.7914 -20.2307 -18.7100 -16.0243 -10.7404 -10.0839
    -6.6736  -4.4522  -4.2757  -0.5424  -0.5370   0.3565   2.1533   3.1617
     3.8722   5.6451   9.8210  14.3734

          k = 0.0833 0.1443 0.0000 (  2687 PWs)   bands (ev):

   -34.8154 -27.6723 -27.1979 -24.0097 -19.8945 -19.5609 -14.0559 -11.3757
   -10.6310  -8.7333  -2.7447  -1.0365   1.8697   2.6626   4.4193   6.9969
     7.0931   8.0027   8.0923   8.4326

          k = 0.0833 0.2406 0.0000 (  2698 PWs)   bands (ev):

   -34.7130 -29.2445 -28.5268 -23.4435 -17.8693 -17.2737 -13.8883 -12.2580
   -10.4392  -8.3112  -2.6374  -1.7847   2.6996   3.4416   3.7439   6.1556
     6.4837   8.0914   8.7850   9.2313

          k = 0.0833 0.3368 0.0000 (  2705 PWs)   bands (ev):

   -34.5526 -30.5804 -29.6065 -22.6183 -16.4871 -15.9004 -13.9205 -11.8610
    -9.5886  -7.4476  -2.7465  -1.9596   1.3870   3.1021   3.8254   5.3182
     6.1638   7.6437   8.2734  10.2072

          k = 0.0833 0.4330 0.0000 (  2710 PWs)   bands (ev):

   -34.3435 -31.5924 -30.3497 -21.5891 -17.0164 -15.9563 -12.4651 -10.5859
    -8.1630  -6.1012  -3.5933  -1.2550   0.3427   2.1068   2.7924   4.3721
     4.7139   6.3049   9.4341  11.9022

          k = 0.0833 0.5292 0.0000 (  2713 PWs)   bands (ev):

   -34.1547 -32.1876 -30.7266 -20.5279 -18.2869 -15.9395 -11.1216 -10.0565
    -6.7337  -4.6064  -4.2667  -0.8838   0.0159   0.7365   2.3414   3.1936
     3.7665   5.1642  10.4502  13.9202

          k = 0.1667 0.2887 0.0000 (  2703 PWs)   bands (ev):

   -34.5764 -30.4627 -29.4203 -22.7850 -16.2968 -16.1723 -13.6368 -12.7224
    -9.1796  -7.8984  -2.5565  -2.2289   2.2322   2.3921   4.7871   5.1822
     6.1729   7.2427   8.3781  10.0065

          k = 0.1667 0.3849 0.0000 (  2709 PWs)   bands (ev):

   -34.3782 -31.5175 -30.1461 -21.9063 -16.5545 -15.6580 -13.0094 -11.4438
    -7.6852  -6.8871  -3.3525  -1.5336   0.7694   1.8848   3.6134   4.2304
     5.7831   6.5388   8.4378  11.3984

          k = 0.1667 0.4811 0.0000 (  2736 PWs)   bands (ev):

   -34.1401 -32.2932 -30.6085 -20.9371 -17.5519 -15.8001 -11.7711 -10.2846
    -6.6920  -4.7928  -4.1161  -0.8480  -0.1275   1.0300   2.5660   3.1183
     4.2751   5.2340  10.5550  12.8743

          k = 0.1667 0.5774 0.0000 (  2725 PWs)   bands (ev):

   -34.0001 -32.6160 -30.7662 -20.3583 -18.1725 -15.9051 -11.0196 -10.1394
    -5.8378  -4.7864  -3.5046  -0.5252  -0.1950   0.4079   1.4284   3.0048
     3.8320   4.5075  11.6663  13.4580

          k = 0.2500 0.4330 0.0000 (  2739 PWs)   bands (ev):

   -34.1323 -32.3424 -30.5537 -21.0995 -17.1593 -15.7686 -12.0760 -10.4836
    -6.5116  -5.0771  -3.8130  -0.9469  -0.1520   0.9887   2.2604   3.2060
     4.3556   6.6549   9.2685  12.8381

          k = 0.2500 0.5292 0.0000 (  2751 PWs)   bands (ev):

   -33.8500 -32.9316 -30.7703 -20.4752 -17.5387 -16.1799 -11.1305 -10.2005
    -5.4702  -4.4614  -2.9233  -0.7878  -0.4748   0.4795   1.2472   2.2806
     2.7396   6.7812  10.8765  12.9053

          k = 0.3333 0.5774 0.0000 (  2763 PWs)   bands (ev):

   -33.4524 -33.4524 -30.8257 -20.3431 -16.9260 -16.9260 -10.5321 -10.5321
    -4.6274  -4.6274  -2.3287  -1.1679   0.3446   0.5671   0.5673   1.5918
     1.5920   8.1383  11.2479  11.2481

     the Fermi energy is     4.7096 ev

!    total energy              =     -57.91364702 Ry
     estimated scf accuracy    <          3.8E-10 Ry
     smearing contrib. (-TS)   =       0.00089825 Ry
     internal energy E=F+TS    =     -57.91454527 Ry

     The total energy is F=E-TS. E is the sum of the following terms:
     one-electron contribution =   -2233.11195719 Ry
     hartree contribution      =    1128.41472496 Ry
     xc contribution           =     -44.14149291 Ry
     ewald contribution        =    1090.92417988 Ry

     convergence has been achieved in  33 iterations

     negative rho (up, down):  2.555E-03 0.000E+00

     Forces acting on atoms (cartesian axes, Ry/au):

     atom    1 type  1   force =     0.00000000   -0.00000000  -24.46119652
     atom    2 type  1   force =     0.00000000    0.00000000   -2.45137874
     atom    3 type  1   force =     0.00000000    0.00000000  -23.82478821
     atom    4 type  1   force =     0.00000000    0.00000000   21.67030443
     atom    5 type  1   force =     0.00000000    0.00000000  -21.67025495
     atom    6 type  1   force =     0.00000000    0.00000000   23.82478955
     atom    7 type  1   force =     0.00000000    0.00000000    2.45127615
     atom    8 type  1   force =     0.00000000    0.00000000   24.46124828

     Total force =    57.298900     Total SCF correction =     0.000045


     Computing stress (Cartesian axis) and pressure


     negative rho (up, down):  2.555E-03 0.000E+00
          total   stress  (Ry/bohr**3)                   (kbar)     P=     9894.94
   0.02836812   0.00000000   0.00000000         4173.09        0.00        0.00
   0.00000000   0.02836812   0.00000000            0.00     4173.09        0.00
   0.00000000   0.00000000   0.14505715            0.00        0.00    21338.64


     Writing all to output data dir /run/media/rfa/SATA/Skripsi/DFT/Graphene-copy/tmp/gr-abc-4L.save/ :
     XML data file, charge density, pseudopotentials, collected wavefunctions

     init_run     :      0.50s CPU      0.49s WALL (       1 calls)
     electrons    :    156.14s CPU    115.58s WALL (       1 calls)
     forces       :      0.56s CPU      0.41s WALL (       1 calls)
     stress       :      2.58s CPU      1.94s WALL (       1 calls)

     Called by init_run:
     wfcinit      :      0.33s CPU      0.18s WALL (       1 calls)
     potinit      :      0.01s CPU      0.01s WALL (       1 calls)
     hinit0       :      0.15s CPU      0.28s WALL (       1 calls)

     Called by electrons:
     c_bands      :    144.22s CPU    106.32s WALL (      33 calls)
     sum_band     :      9.93s CPU      7.39s WALL (      33 calls)
     v_of_rho     :      0.25s CPU      0.24s WALL (      34 calls)
     newd         :      1.49s CPU      1.40s WALL (      34 calls)
     mix_rho      :      0.15s CPU      0.11s WALL (      33 calls)

     Called by c_bands:
     init_us_2    :      0.56s CPU      0.49s WALL (    1311 calls)
     cegterg      :    138.59s CPU    102.21s WALL (     627 calls)

     Called by *egterg:
     cdiaghg      :     12.32s CPU      9.92s WALL (    4829 calls)
     h_psi        :     57.33s CPU     41.66s WALL (    4848 calls)
     s_psi        :      2.50s CPU      2.37s WALL (    4848 calls)
     g_psi        :      0.18s CPU      0.12s WALL (    4202 calls)

     Called by h_psi:
     h_psi:calbec :     33.96s CPU     23.98s WALL (    4848 calls)
     vloc_psi     :     19.77s CPU     14.34s WALL (    4848 calls)
     add_vuspsi   :      3.31s CPU      3.12s WALL (    4848 calls)

     General routines
     calbec       :     42.81s CPU     30.58s WALL (    5798 calls)
     fft          :      0.26s CPU      0.39s WALL (     399 calls)
     ffts         :      0.03s CPU      0.02s WALL (      33 calls)
     fftw         :     20.09s CPU     14.67s WALL (   97802 calls)

     Parallel routines

     PWSCF        :   2m39.89s CPU   1m58.82s WALL


   This run was terminated on:  15:31:12  16Apr2025            

=------------------------------------------------------------------------------=
   JOB DONE.
=------------------------------------------------------------------------------=
