
     Program PWSCF v.7.4.1 starts on 16Apr2025 at 15:27:25 

     This program is part of the open-source Quantum ESPRESSO suite
     for quantum simulation of materials; please cite
         "P. Giannozzi et al., J. Phys.:Condens. Matter 21 395502 (2009);
         "P. Giannozzi et al., J. Phys.:Condens. Matter 29 465901 (2017);
         "P. Giannozzi et al., J. Chem. Phys. 152 154105 (2020);
          URL http://www.quantum-espresso.org", 
     in publications or presentations arising from this work. More details at
     http://www.quantum-espresso.org/quote

     Parallel version (MPI), running on     7 processors

     MPI processes distributed on     1 nodes
     14464 MiB available memory on the printing compute node when the environment starts

     Waiting for input...
     Reading input from standard input

     Current dimensions of program PWSCF are:
     Max number of different atomic species (ntypx) = 10
     Max number of k-points (npk) =  40000
     Max angular momentum in pseudopotentials (lmaxx) =  4

     R & G space division:  proc/nbgrp/npool/nimage =       7
     Subspace diagonalization in iterative solution of the eigenvalue problem:
     a serial algorithm will be used


     Parallelization info
     --------------------
     sticks:   dense  smooth     PW     G-vecs:    dense   smooth      PW
     Min          34      34     11                 2594     2594     484
     Max          35      35     13                 2609     2609     493
     Sum         241     241     85                18211    18211    3425

     Using Slab Decomposition



     bravais-lattice index     =            4
     lattice parameter (alat)  =       4.6561  a.u.
     unit-cell volume          =     532.1899 (a.u.)^3
     number of atoms/cell      =            8
     number of atomic types    =            1
     number of electrons       =        32.00
     number of Kohn-Sham states=           20
     kinetic-energy cutoff     =      40.0000  Ry
     charge density cutoff     =     160.0000  Ry
     scf convergence threshold =      1.0E-08
     mixing beta               =       0.7000
     number of iterations used =            8  plain     mixing
     Exchange-correlation= PBE
                           (   1   4   3   4   0   0   0)

     celldm(1)=   4.656107  celldm(2)=   0.000000  celldm(3)=   6.087896
     celldm(4)=   0.000000  celldm(5)=   0.000000  celldm(6)=   0.000000

     crystal axes: (cart. coord. in units of alat)
               a(1) = (   1.000000   0.000000   0.000000 )  
               a(2) = (  -0.500000   0.866025   0.000000 )  
               a(3) = (   0.000000   0.000000   6.087896 )  

     reciprocal axes: (cart. coord. in units 2 pi/alat)
               b(1) = (  1.000000  0.577350 -0.000000 )  
               b(2) = (  0.000000  1.154701  0.000000 )  
               b(3) = (  0.000000 -0.000000  0.164260 )  


     PseudoPot. # 1 for C  read from file:
     /run/media/rfa/SATA/Skripsi/DFT/Graphene-copy/pseudo/C.pbe-n-rrkjus_psl.0.1.UPF
     MD5 check sum: 96a6a315177d77e6c95bf6fd3870f9e3
     Pseudo is Ultrasoft + core correction, Zval =  4.0
     Generated using &quot;atomic&quot; code by A. Dal Corso  v.6.3MaX
     Using radial grid of 1073 points,  4 beta functions with: 
                l(1) =   0
                l(2) =   0
                l(3) =   1
                l(4) =   1
     Q(r) pseudized with 0 coefficients 


     atomic species   valence    mass     pseudopotential
     C                 4.00    12.01070     C ( 1.00)

      6 Sym. Ops. (no inversion) found



   Cartesian axes

     site n.     atom                  positions (alat units)
         1        C      tau(   1) = (   0.0000000   0.5773503   3.0439478  )
         2        C      tau(   2) = (   0.5000000   0.2886751   3.0439478  )
         3        C      tau(   3) = (   0.0000000   0.0000000   3.2468777  )
         4        C      tau(   4) = (   0.0000000   0.5773503   3.2468777  )
         5        C      tau(   5) = (   0.5000000   0.2886751   3.4498075  )
         6        C      tau(   6) = (   0.0000000   0.0000000   3.4498075  )
         7        C      tau(   7) = (   0.0000000   0.5773503   3.6527374  )
         8        C      tau(   8) = (   0.5000000   0.2886751   3.6527374  )

     number of k points=    19  Marzari-Vanderbilt smearing, width (Ry)=  0.0200
                       cart. coord. in units 2pi/alat
        k(    1) = (   0.0000000   0.0000000   0.0000000), wk =   0.0138889
        k(    2) = (   0.0000000   0.0962250   0.0000000), wk =   0.0833333
        k(    3) = (   0.0000000   0.1924501   0.0000000), wk =   0.0833333
        k(    4) = (   0.0000000   0.2886751   0.0000000), wk =   0.0833333
        k(    5) = (   0.0000000   0.3849002   0.0000000), wk =   0.0833333
        k(    6) = (   0.0000000   0.4811252   0.0000000), wk =   0.0833333
        k(    7) = (   0.0000000  -0.5773503   0.0000000), wk =   0.0416667
        k(    8) = (   0.0833333   0.1443376   0.0000000), wk =   0.0833333
        k(    9) = (   0.0833333   0.2405626   0.0000000), wk =   0.1666667
        k(   10) = (   0.0833333   0.3367877   0.0000000), wk =   0.1666667
        k(   11) = (   0.0833333   0.4330127   0.0000000), wk =   0.1666667
        k(   12) = (   0.0833333   0.5292377   0.0000000), wk =   0.1666667
        k(   13) = (   0.1666667   0.2886751   0.0000000), wk =   0.0833333
        k(   14) = (   0.1666667   0.3849002   0.0000000), wk =   0.1666667
        k(   15) = (   0.1666667   0.4811252   0.0000000), wk =   0.1666667
        k(   16) = (   0.1666667   0.5773503   0.0000000), wk =   0.0833333
        k(   17) = (   0.2500000   0.4330127   0.0000000), wk =   0.0833333
        k(   18) = (   0.2500000   0.5292377   0.0000000), wk =   0.1666667
        k(   19) = (   0.3333333   0.5773503   0.0000000), wk =   0.0277778

     Dense  grid:    18211 G-vectors     FFT dimensions: (  20,  20, 120)

     Estimated max dynamical RAM per process >       6.76 MB

     Estimated total dynamical RAM >      47.33 MB

     Check: negative core charge=   -0.000024

     Initial potential from superposition of free atoms

     starting charge      31.9997, renormalised to      32.0000

     negative rho (up, down):  1.286E-04 0.000E+00
     Starting wfcs are   32 randomized atomic wfcs

     total cpu time spent up to now is        1.4 secs

     per-process dynamical memory:    11.3 Mb

     Self-consistent Calculation

     iteration #  1     ecut=    40.00 Ry     beta= 0.70
     Davidson diagonalization with overlap
     ethr =  1.00E-02,  avg # of iterations =  8.0

     negative rho (up, down):  9.590E-03 0.000E+00

     total cpu time spent up to now is        7.2 secs

     total energy              =     -50.30169983 Ry
     estimated scf accuracy    <      17.73060220 Ry

     iteration #  2     ecut=    40.00 Ry     beta= 0.70
     Davidson diagonalization with overlap
     c_bands:  2 eigenvalues not converged
     c_bands:  2 eigenvalues not converged
     c_bands:  1 eigenvalues not converged
     ethr =  1.00E-02,  avg # of iterations = 17.9

     total cpu time spent up to now is       14.9 secs

     total energy              =     -31.08232762 Ry
     estimated scf accuracy    <     125.14553192 Ry

     iteration #  3     ecut=    40.00 Ry     beta= 0.70
     Davidson diagonalization with overlap
     c_bands:  1 eigenvalues not converged
     ethr =  1.00E-02,  avg # of iterations = 14.8

     total cpu time spent up to now is       21.0 secs

     total energy              =     -57.82334361 Ry
     estimated scf accuracy    <       3.49066000 Ry

     iteration #  4     ecut=    40.00 Ry     beta= 0.70
     Davidson diagonalization with overlap
     ethr =  1.00E-02,  avg # of iterations =  3.2

     total cpu time spent up to now is       23.3 secs

     total energy              =     -57.99751539 Ry
     estimated scf accuracy    <       1.43958065 Ry

     iteration #  5     ecut=    40.00 Ry     beta= 0.70
     Davidson diagonalization with overlap
     ethr =  4.50E-03,  avg # of iterations =  2.7

     total cpu time spent up to now is       25.5 secs

     total energy              =     -58.01280674 Ry
     estimated scf accuracy    <       1.53344795 Ry

     iteration #  6     ecut=    40.00 Ry     beta= 0.70
     Davidson diagonalization with overlap
     ethr =  4.50E-03,  avg # of iterations =  1.0

     total cpu time spent up to now is       27.2 secs

     total energy              =     -57.93249005 Ry
     estimated scf accuracy    <       0.90700316 Ry

     iteration #  7     ecut=    40.00 Ry     beta= 0.70
     Davidson diagonalization with overlap
     ethr =  2.83E-03,  avg # of iterations =  1.2

     total cpu time spent up to now is       28.6 secs

     total energy              =     -57.94077177 Ry
     estimated scf accuracy    <       0.52904684 Ry

     iteration #  8     ecut=    40.00 Ry     beta= 0.70
     Davidson diagonalization with overlap
     ethr =  1.65E-03,  avg # of iterations =  2.3

     total cpu time spent up to now is       30.1 secs

     total energy              =     -57.98373993 Ry
     estimated scf accuracy    <       0.46811564 Ry

     iteration #  9     ecut=    40.00 Ry     beta= 0.70
     Davidson diagonalization with overlap
     ethr =  1.46E-03,  avg # of iterations =  1.2

     total cpu time spent up to now is       32.4 secs

     total energy              =     -57.99929133 Ry
     estimated scf accuracy    <       0.46591042 Ry

     iteration # 10     ecut=    40.00 Ry     beta= 0.70
     Davidson diagonalization with overlap
     ethr =  1.46E-03,  avg # of iterations =  1.0

     total cpu time spent up to now is       33.8 secs

     total energy              =     -57.88192241 Ry
     estimated scf accuracy    <       0.47154786 Ry

     iteration # 11     ecut=    40.00 Ry     beta= 0.70
     Davidson diagonalization with overlap
     ethr =  1.46E-03,  avg # of iterations =  1.8

     negative rho (up, down):  7.615E-03 0.000E+00

     total cpu time spent up to now is       35.3 secs

     total energy              =     -57.83808198 Ry
     estimated scf accuracy    <       0.26705255 Ry

     iteration # 12     ecut=    40.00 Ry     beta= 0.70
     Davidson diagonalization with overlap
     c_bands:  1 eigenvalues not converged
     ethr =  8.35E-04,  avg # of iterations =  7.1

     negative rho (up, down):  6.262E-03 0.000E+00

     total cpu time spent up to now is       37.8 secs

     total energy              =     -57.94681174 Ry
     estimated scf accuracy    <       0.39589522 Ry

     iteration # 13     ecut=    40.00 Ry     beta= 0.70
     Davidson diagonalization with overlap
     ethr =  8.35E-04,  avg # of iterations =  1.1

     negative rho (up, down):  6.833E-03 0.000E+00

     total cpu time spent up to now is       39.4 secs

     total energy              =     -58.10893116 Ry
     estimated scf accuracy    <       0.52814759 Ry

     iteration # 14     ecut=    40.00 Ry     beta= 0.70
     Davidson diagonalization with overlap
     ethr =  8.35E-04,  avg # of iterations =  2.7

     negative rho (up, down):  1.116E-02 0.000E+00

     total cpu time spent up to now is       41.1 secs

     total energy              =     -58.39533274 Ry
     estimated scf accuracy    <       1.00998933 Ry

     iteration # 15     ecut=    40.00 Ry     beta= 0.70
     Davidson diagonalization with overlap
     ethr =  8.35E-04,  avg # of iterations =  3.4

     negative rho (up, down):  1.114E-02 0.000E+00

     total cpu time spent up to now is       44.0 secs

     total energy              =     -58.42800920 Ry
     estimated scf accuracy    <       1.89712429 Ry

     iteration # 16     ecut=    40.00 Ry     beta= 0.70
     Davidson diagonalization with overlap
     ethr =  8.35E-04,  avg # of iterations =  1.0

     negative rho (up, down):  7.003E-03 0.000E+00

     total cpu time spent up to now is       45.9 secs

     total energy              =     -57.86854200 Ry
     estimated scf accuracy    <       1.94402689 Ry

     iteration # 17     ecut=    40.00 Ry     beta= 0.70
     Davidson diagonalization with overlap
     ethr =  8.35E-04,  avg # of iterations =  2.5

     negative rho (up, down):  6.548E-03 0.000E+00

     total cpu time spent up to now is       48.7 secs

     total energy              =     -57.65903726 Ry
     estimated scf accuracy    <       0.52075385 Ry

     iteration # 18     ecut=    40.00 Ry     beta= 0.70
     Davidson diagonalization with overlap
     ethr =  8.35E-04,  avg # of iterations = 10.5

     negative rho (up, down):  3.385E-03 0.000E+00

     total cpu time spent up to now is       53.5 secs

     total energy              =     -57.77873130 Ry
     estimated scf accuracy    <       0.06477663 Ry

     iteration # 19     ecut=    40.00 Ry     beta= 0.70
     Davidson diagonalization with overlap
     ethr =  2.02E-04,  avg # of iterations =  6.9

     negative rho (up, down):  5.073E-03 0.000E+00

     total cpu time spent up to now is       58.0 secs

     total energy              =     -57.78880060 Ry
     estimated scf accuracy    <       0.02824806 Ry

     iteration # 20     ecut=    40.00 Ry     beta= 0.70
     Davidson diagonalization with overlap
     ethr =  8.83E-05,  avg # of iterations =  5.1

     negative rho (up, down):  6.708E-03 0.000E+00

     total cpu time spent up to now is       60.7 secs

     total energy              =     -57.78839124 Ry
     estimated scf accuracy    <       0.01581646 Ry

     iteration # 21     ecut=    40.00 Ry     beta= 0.70
     Davidson diagonalization with overlap
     ethr =  4.94E-05,  avg # of iterations =  2.8

     negative rho (up, down):  7.131E-03 0.000E+00

     total cpu time spent up to now is       63.1 secs

     total energy              =     -57.78829008 Ry
     estimated scf accuracy    <       0.00831002 Ry

     iteration # 22     ecut=    40.00 Ry     beta= 0.70
     Davidson diagonalization with overlap
     c_bands:  1 eigenvalues not converged
     ethr =  2.60E-05,  avg # of iterations =  7.6

     negative rho (up, down):  6.548E-03 0.000E+00

     total cpu time spent up to now is       67.0 secs

     total energy              =     -57.79006942 Ry
     estimated scf accuracy    <       0.00366435 Ry

     iteration # 23     ecut=    40.00 Ry     beta= 0.70
     Davidson diagonalization with overlap
     c_bands:  2 eigenvalues not converged
     c_bands:  1 eigenvalues not converged
     ethr =  1.15E-05,  avg # of iterations =  7.4

     negative rho (up, down):  5.803E-03 0.000E+00

     total cpu time spent up to now is       70.1 secs

     total energy              =     -57.79096331 Ry
     estimated scf accuracy    <       0.00480611 Ry

     iteration # 24     ecut=    40.00 Ry     beta= 0.70
     Davidson diagonalization with overlap
     ethr =  1.15E-05,  avg # of iterations =  2.3

     negative rho (up, down):  5.188E-03 0.000E+00

     total cpu time spent up to now is       71.7 secs

     total energy              =     -57.78932986 Ry
     estimated scf accuracy    <       0.00479739 Ry

     iteration # 25     ecut=    40.00 Ry     beta= 0.70
     Davidson diagonalization with overlap
     ethr =  1.15E-05,  avg # of iterations =  7.2

     negative rho (up, down):  5.532E-03 0.000E+00

     total cpu time spent up to now is       74.7 secs

     total energy              =     -57.78965043 Ry
     estimated scf accuracy    <       0.00080977 Ry

     iteration # 26     ecut=    40.00 Ry     beta= 0.70
     Davidson diagonalization with overlap
     c_bands:  2 eigenvalues not converged
     c_bands:  1 eigenvalues not converged
     ethr =  2.53E-06,  avg # of iterations = 11.5

     negative rho (up, down):  5.780E-03 0.000E+00

     total cpu time spent up to now is       79.0 secs

     total energy              =     -57.79000131 Ry
     estimated scf accuracy    <       0.00042084 Ry

     iteration # 27     ecut=    40.00 Ry     beta= 0.70
     Davidson diagonalization with overlap
     c_bands:  1 eigenvalues not converged
     ethr =  1.32E-06,  avg # of iterations =  3.2

     negative rho (up, down):  5.941E-03 0.000E+00

     total cpu time spent up to now is       81.5 secs

     total energy              =     -57.78999062 Ry
     estimated scf accuracy    <       0.00013397 Ry

     iteration # 28     ecut=    40.00 Ry     beta= 0.70
     Davidson diagonalization with overlap
     ethr =  4.19E-07,  avg # of iterations =  5.0

     negative rho (up, down):  5.916E-03 0.000E+00

     total cpu time spent up to now is       84.5 secs

     total energy              =     -57.79003686 Ry
     estimated scf accuracy    <       0.00001035 Ry

     iteration # 29     ecut=    40.00 Ry     beta= 0.70
     Davidson diagonalization with overlap
     ethr =  3.24E-08,  avg # of iterations =  7.9

     negative rho (up, down):  5.895E-03 0.000E+00

     total cpu time spent up to now is       89.7 secs

     total energy              =     -57.79005016 Ry
     estimated scf accuracy    <       0.00000808 Ry

     iteration # 30     ecut=    40.00 Ry     beta= 0.70
     Davidson diagonalization with overlap
     ethr =  2.52E-08,  avg # of iterations =  3.8

     negative rho (up, down):  5.919E-03 0.000E+00

     total cpu time spent up to now is       92.6 secs

     total energy              =     -57.79005249 Ry
     estimated scf accuracy    <       0.00000031 Ry

     iteration # 31     ecut=    40.00 Ry     beta= 0.70
     Davidson diagonalization with overlap
     ethr =  9.56E-10,  avg # of iterations = 11.1

     negative rho (up, down):  5.919E-03 0.000E+00

     total cpu time spent up to now is       99.3 secs

     total energy              =     -57.79005340 Ry
     estimated scf accuracy    <       0.00000006 Ry

     iteration # 32     ecut=    40.00 Ry     beta= 0.70
     Davidson diagonalization with overlap
     ethr =  1.98E-10,  avg # of iterations =  4.5

     negative rho (up, down):  5.919E-03 0.000E+00

     total cpu time spent up to now is      103.2 secs

     total energy              =     -57.79005342 Ry
     estimated scf accuracy    <       0.00000003 Ry

     iteration # 33     ecut=    40.00 Ry     beta= 0.70
     Davidson diagonalization with overlap
     ethr =  8.40E-11,  avg # of iterations =  4.9

     negative rho (up, down):  5.919E-03 0.000E+00

     total cpu time spent up to now is      105.6 secs

     End of self-consistent calculation

          k = 0.0000 0.0000 0.0000 (  2289 PWs)   bands (ev):

   -34.9337 -24.5062 -24.1830 -24.1830 -23.8207 -23.8207 -14.3471 -10.5492
   -10.5492  -8.6457  -1.4193  -0.4301   0.1615   0.1615   4.7166   7.1173
     7.3942   7.7676   8.3515   8.6011

          k = 0.0000 0.0962 0.0000 (  2286 PWs)   bands (ev):

   -34.9122 -26.2852 -26.0340 -24.3106 -21.7370 -21.5254 -14.2238 -10.7494
   -10.7201  -8.7441  -2.2641  -0.6705   0.7315   1.5710   4.6071   7.2997
     7.3953   7.7581   7.9639   8.0017

          k = 0.0000 0.1925 0.0000 (  2280 PWs)   bands (ev):

   -34.8401 -28.2085 -27.7435 -23.8751 -19.4295 -18.8970 -13.9599 -11.3762
   -11.0872  -8.5729  -2.6739  -1.3071   2.1377   2.8490   4.1611   6.5505
     7.2121   7.9474   8.1485   8.4623

          k = 0.0000 0.2887 0.0000 (  2278 PWs)   bands (ev):

   -34.7143 -29.7996 -29.1032 -23.1653 -17.4748 -16.4693 -14.2016 -11.5814
   -10.9421  -7.8874  -2.4710  -2.0458   2.0396   3.3129   3.7384   5.7802
     6.8681   7.6802   8.9597   9.4128

          k = 0.0000 0.3849 0.0000 (  2272 PWs)   bands (ev):

   -34.5300 -31.0361 -30.0865 -22.2110 -16.4277 -16.3272 -13.3828 -10.7359
    -9.7158  -6.8390  -3.1390  -1.5810   0.7603   2.6767   2.9730   4.9076
     6.1278   7.3791   8.1400  10.6297

          k = 0.0000 0.4811 0.0000 (  2282 PWs)   bands (ev):

   -34.3235 -31.8768 -30.6813 -21.0848 -17.7480 -16.1518 -11.6509 -10.0040
    -7.8221  -5.4744  -3.9106  -1.1973   0.4334   1.1675   1.8339   3.9969
     4.6507   5.9201   9.4294  12.6218

          k = 0.0000-0.5774 0.0000 (  2260 PWs)   bands (ev):

   -34.2153 -32.1970 -30.8798 -20.2642 -18.7033 -16.1200 -10.6167 -10.1013
    -6.7734  -4.4990  -4.3550  -0.6283  -0.5930   0.2888   2.2374   3.1634
     3.8097   5.5638   9.7517  14.6532

          k = 0.0833 0.1443 0.0000 (  2291 PWs)   bands (ev):

   -34.8654 -27.7507 -27.2880 -24.0344 -19.9868 -19.6487 -14.0087 -11.4409
   -10.7166  -8.7188  -2.6657  -1.1115   1.7887   2.6666   4.3038   6.9751
     7.0010   7.7495   8.0538   8.3033

          k = 0.0833 0.2406 0.0000 (  2281 PWs)   bands (ev):

   -34.7637 -29.3202 -28.6160 -23.4649 -17.9631 -17.3623 -13.8493 -12.2786
   -10.5072  -8.3135  -2.5838  -1.8555   2.6997   3.3602   3.6582   6.0697
     6.4090   8.1727   8.5673   9.0021

          k = 0.0833 0.3368 0.0000 (  2266 PWs)   bands (ev):

   -34.6052 -30.6537 -29.6951 -22.6396 -16.5812 -15.9768 -13.8996 -11.8519
    -9.6451  -7.4767  -2.8082  -1.9493   1.3492   3.0754   3.7402   5.2373
     6.1326   7.6101   8.2252   9.9642

          k = 0.0833 0.4330 0.0000 (  2279 PWs)   bands (ev):

   -34.3976 -31.6631 -30.4382 -21.6133 -17.0497 -16.0506 -12.4436 -10.5575
    -8.2359  -6.1541  -3.6595  -1.2785   0.2889   2.0854   2.7473   4.3186
     4.6760   6.2374   9.3707  11.6884

          k = 0.0833 0.5292 0.0000 (  2273 PWs)   bands (ev):

   -34.2092 -32.2563 -30.8154 -20.5620 -18.2965 -16.0343 -11.0482 -10.0455
    -6.8284  -4.6673  -4.3423  -0.9525  -0.0577   0.6988   2.3577   3.2048
     3.6970   5.0789  10.3812  13.8052

          k = 0.1667 0.2887 0.0000 (  2273 PWs)   bands (ev):

   -34.6317 -30.5367 -29.5095 -22.8073 -16.3934 -16.2567 -13.6060 -12.7382
    -9.2440  -7.9167  -2.6303  -2.2153   2.2588   2.2982   4.6875   5.1108
     6.0974   7.2784   8.3199   9.7589

          k = 0.1667 0.3849 0.0000 (  2279 PWs)   bands (ev):

   -34.4343 -31.5884 -30.2350 -21.9307 -16.6071 -15.7496 -12.9741 -11.4493
    -7.7377  -6.9363  -3.4279  -1.5367   0.7049   1.8880   3.5416   4.1512
     5.7374   6.4967   8.3955  11.1879

          k = 0.1667 0.4811 0.0000 (  2273 PWs)   bands (ev):

   -34.1966 -32.3615 -30.6969 -20.9711 -17.5762 -15.8826 -11.7193 -10.2705
    -6.7614  -4.8700  -4.1864  -0.8925  -0.1785   1.0118   2.5274   3.0482
     4.1938   5.2297  10.5105  12.7891

          k = 0.1667 0.5774 0.0000 (  2254 PWs)   bands (ev):

   -34.0571 -32.6837 -30.8544 -20.4024 -18.1841 -15.9873 -10.9418 -10.1484
    -5.9278  -4.8460  -3.5999  -0.5593  -0.2869   0.3783   1.4068   2.9280
     3.7417   4.5326  11.5998  13.4786

          k = 0.2500 0.4330 0.0000 (  2269 PWs)   bands (ev):

   -34.1894 -32.4100 -30.6418 -21.1337 -17.1986 -15.8388 -12.0358 -10.4835
    -6.5635  -5.1553  -3.8939  -0.9564  -0.2326   0.9825   2.2017   3.1297
     4.2529   6.6851   9.2243  12.6950

          k = 0.2500 0.5292 0.0000 (  2253 PWs)   bands (ev):

   -33.9080 -32.9967 -30.8584 -20.5156 -17.5633 -16.2371 -11.0784 -10.1863
    -5.5380  -4.5336  -3.0263  -0.8091  -0.4950   0.4086   1.1986   2.2057
     2.6469   6.8233  10.8567  12.8894

          k = 0.3333 0.5774 0.0000 (  2259 PWs)   bands (ev):

   -33.5136 -33.5136 -30.9136 -20.3867 -16.9614 -16.9614 -10.4987 -10.4987
    -4.6991  -4.6991  -2.4413  -1.1213   0.2589   0.4930   0.4931   1.5207
     1.5207   8.2230  11.2227  11.2228

     the Fermi energy is     4.6608 ev

!    total energy              =     -57.79005343 Ry
     estimated scf accuracy    <          2.7E-09 Ry
     smearing contrib. (-TS)   =       0.00056811 Ry
     internal energy E=F+TS    =     -57.79062154 Ry

     The total energy is F=E-TS. E is the sum of the following terms:
     one-electron contribution =   -2232.77270012 Ry
     hartree contribution      =    1128.18475825 Ry
     xc contribution           =     -44.12686122 Ry
     ewald contribution        =    1090.92418154 Ry

     convergence has been achieved in  33 iterations

     negative rho (up, down):  5.919E-03 0.000E+00

     Forces acting on atoms (cartesian axes, Ry/au):

     atom    1 type  1   force =     0.00000000    0.00000000  -24.78783303
     atom    2 type  1   force =     0.00000000    0.00000000   -2.46252056
     atom    3 type  1   force =     0.00000000    0.00000000  -24.16999950
     atom    4 type  1   force =     0.00000000    0.00000000   21.98626304
     atom    5 type  1   force =     0.00000000    0.00000000  -21.98623801
     atom    6 type  1   force =     0.00000000    0.00000000   24.16999985
     atom    7 type  1   force =     0.00000000    0.00000000    2.46249777
     atom    8 type  1   force =     0.00000000    0.00000000   24.78783044

     Total force =    58.104813     Total SCF correction =     0.000181


     Computing stress (Cartesian axis) and pressure


     negative rho (up, down):  5.919E-03 0.000E+00
          total   stress  (Ry/bohr**3)                   (kbar)     P=     9901.76
   0.02819822   0.00000000   0.00000000         4148.10        0.00        0.00
   0.00000000   0.02819822   0.00000000            0.00     4148.10        0.00
   0.00000000   0.00000000   0.14553591            0.00        0.00    21409.07


     Writing all to output data dir /run/media/rfa/SATA/Skripsi/DFT/Graphene-copy/tmp/gr-abc-4L.save/ :
     XML data file, charge density, pseudopotentials, collected wavefunctions

     init_run     :      1.21s CPU      1.32s WALL (       1 calls)
     electrons    :    138.34s CPU    104.20s WALL (       1 calls)
     forces       :      0.46s CPU      0.34s WALL (       1 calls)
     stress       :      1.48s CPU      1.07s WALL (       1 calls)

     Called by init_run:
     wfcinit      :      0.74s CPU      0.54s WALL (       1 calls)
     potinit      :      0.01s CPU      0.01s WALL (       1 calls)
     hinit0       :      0.35s CPU      0.65s WALL (       1 calls)

     Called by electrons:
     c_bands      :    126.33s CPU     94.72s WALL (      33 calls)
     sum_band     :     10.06s CPU      7.63s WALL (      33 calls)
     v_of_rho     :      0.25s CPU      0.23s WALL (      34 calls)
     newd         :      1.59s CPU      1.50s WALL (      34 calls)
     mix_rho      :      0.12s CPU      0.10s WALL (      33 calls)

     Called by c_bands:
     init_us_2    :      0.46s CPU      0.40s WALL (    1311 calls)
     cegterg      :    120.93s CPU     90.72s WALL (     627 calls)

     Called by *egterg:
     cdiaghg      :      9.73s CPU      7.92s WALL (    3944 calls)
     h_psi        :     49.13s CPU     36.11s WALL (    3963 calls)
     s_psi        :      2.10s CPU      2.03s WALL (    3963 calls)
     g_psi        :      0.17s CPU      0.11s WALL (    3317 calls)

     Called by h_psi:
     h_psi:calbec :     27.64s CPU     19.53s WALL (    3963 calls)
     vloc_psi     :     18.25s CPU     13.54s WALL (    3963 calls)
     add_vuspsi   :      2.97s CPU      2.85s WALL (    3963 calls)

     General routines
     calbec       :     35.98s CPU     25.76s WALL (    4913 calls)
     fft          :      0.47s CPU      0.75s WALL (     399 calls)
     ffts         :      0.01s CPU      0.01s WALL (      33 calls)
     fftw         :     18.35s CPU     13.76s WALL (   94602 calls)

     Parallel routines

     PWSCF        :   2m21.67s CPU   1m47.37s WALL


   This run was terminated on:  15:29:12  16Apr2025            

=------------------------------------------------------------------------------=
   JOB DONE.
=------------------------------------------------------------------------------=
