
     Program PWSCF v.7.4.1 starts on 16Apr2025 at 15:23: 8 

     This program is part of the open-source Quantum ESPRESSO suite
     for quantum simulation of materials; please cite
         "P. Giannozzi et al., J. Phys.:Condens. Matter 21 395502 (2009);
         "P. Giannozzi et al., J. Phys.:Condens. Matter 29 465901 (2017);
         "P. Giannozzi et al., J. Chem. Phys. 152 154105 (2020);
          URL http://www.quantum-espresso.org", 
     in publications or presentations arising from this work. More details at
     http://www.quantum-espresso.org/quote

     Parallel version (MPI), running on     7 processors

     MPI processes distributed on     1 nodes
     14491 MiB available memory on the printing compute node when the environment starts

     Waiting for input...
     Reading input from standard input

     Current dimensions of program PWSCF are:
     Max number of different atomic species (ntypx) = 10
     Max number of k-points (npk) =  40000
     Max angular momentum in pseudopotentials (lmaxx) =  4

     R & G space division:  proc/nbgrp/npool/nimage =       7
     Subspace diagonalization in iterative solution of the eigenvalue problem:
     a serial algorithm will be used


     Parallelization info
     --------------------
     sticks:   dense  smooth     PW     G-vecs:    dense   smooth      PW
     Min          21      21      7                 1209     1209     253
     Max          22      22      8                 1218     1218     266
     Sum         151     151     55                 8507     8507    1811

     Using Slab Decomposition



     bravais-lattice index     =            4
     lattice parameter (alat)  =       4.6561  a.u.
     unit-cell volume          =     532.1899 (a.u.)^3
     number of atoms/cell      =            8
     number of atomic types    =            1
     number of electrons       =        32.00
     number of Kohn-Sham states=           20
     kinetic-energy cutoff     =      24.0000  Ry
     charge density cutoff     =      96.0000  Ry
     scf convergence threshold =      1.0E-08
     mixing beta               =       0.7000
     number of iterations used =            8  plain     mixing
     Exchange-correlation= PBE
                           (   1   4   3   4   0   0   0)

     celldm(1)=   4.656107  celldm(2)=   0.000000  celldm(3)=   6.087896
     celldm(4)=   0.000000  celldm(5)=   0.000000  celldm(6)=   0.000000

     crystal axes: (cart. coord. in units of alat)
               a(1) = (   1.000000   0.000000   0.000000 )  
               a(2) = (  -0.500000   0.866025   0.000000 )  
               a(3) = (   0.000000   0.000000   6.087896 )  

     reciprocal axes: (cart. coord. in units 2 pi/alat)
               b(1) = (  1.000000  0.577350 -0.000000 )  
               b(2) = (  0.000000  1.154701  0.000000 )  
               b(3) = (  0.000000 -0.000000  0.164260 )  


     PseudoPot. # 1 for C  read from file:
     /run/media/rfa/SATA/Skripsi/DFT/Graphene-copy/pseudo/C.pbe-n-rrkjus_psl.0.1.UPF
     MD5 check sum: 96a6a315177d77e6c95bf6fd3870f9e3
     Pseudo is Ultrasoft + core correction, Zval =  4.0
     Generated using &quot;atomic&quot; code by A. Dal Corso  v.6.3MaX
     Using radial grid of 1073 points,  4 beta functions with: 
                l(1) =   0
                l(2) =   0
                l(3) =   1
                l(4) =   1
     Q(r) pseudized with 0 coefficients 


     atomic species   valence    mass     pseudopotential
     C                 4.00    12.01070     C ( 1.00)

      6 Sym. Ops. (no inversion) found



   Cartesian axes

     site n.     atom                  positions (alat units)
         1        C      tau(   1) = (   0.0000000   0.5773503   3.0439478  )
         2        C      tau(   2) = (   0.5000000   0.2886751   3.0439478  )
         3        C      tau(   3) = (   0.0000000   0.0000000   3.2468777  )
         4        C      tau(   4) = (   0.0000000   0.5773503   3.2468777  )
         5        C      tau(   5) = (   0.5000000   0.2886751   3.4498075  )
         6        C      tau(   6) = (   0.0000000   0.0000000   3.4498075  )
         7        C      tau(   7) = (   0.0000000   0.5773503   3.6527374  )
         8        C      tau(   8) = (   0.5000000   0.2886751   3.6527374  )

     number of k points=    19  Marzari-Vanderbilt smearing, width (Ry)=  0.0200
                       cart. coord. in units 2pi/alat
        k(    1) = (   0.0000000   0.0000000   0.0000000), wk =   0.0138889
        k(    2) = (   0.0000000   0.0962250   0.0000000), wk =   0.0833333
        k(    3) = (   0.0000000   0.1924501   0.0000000), wk =   0.0833333
        k(    4) = (   0.0000000   0.2886751   0.0000000), wk =   0.0833333
        k(    5) = (   0.0000000   0.3849002   0.0000000), wk =   0.0833333
        k(    6) = (   0.0000000   0.4811252   0.0000000), wk =   0.0833333
        k(    7) = (   0.0000000  -0.5773503   0.0000000), wk =   0.0416667
        k(    8) = (   0.0833333   0.1443376   0.0000000), wk =   0.0833333
        k(    9) = (   0.0833333   0.2405626   0.0000000), wk =   0.1666667
        k(   10) = (   0.0833333   0.3367877   0.0000000), wk =   0.1666667
        k(   11) = (   0.0833333   0.4330127   0.0000000), wk =   0.1666667
        k(   12) = (   0.0833333   0.5292377   0.0000000), wk =   0.1666667
        k(   13) = (   0.1666667   0.2886751   0.0000000), wk =   0.0833333
        k(   14) = (   0.1666667   0.3849002   0.0000000), wk =   0.1666667
        k(   15) = (   0.1666667   0.4811252   0.0000000), wk =   0.1666667
        k(   16) = (   0.1666667   0.5773503   0.0000000), wk =   0.0833333
        k(   17) = (   0.2500000   0.4330127   0.0000000), wk =   0.0833333
        k(   18) = (   0.2500000   0.5292377   0.0000000), wk =   0.1666667
        k(   19) = (   0.3333333   0.5773503   0.0000000), wk =   0.0277778

     Dense  grid:     8507 G-vectors     FFT dimensions: (  15,  15,  90)

     Estimated max dynamical RAM per process >       3.22 MB

     Estimated total dynamical RAM >      22.51 MB

     Check: negative core charge=   -0.000177

     Initial potential from superposition of free atoms

     starting charge      31.9997, renormalised to      32.0000

     negative rho (up, down):  1.248E-02 0.000E+00
     Starting wfcs are   32 randomized atomic wfcs

     total cpu time spent up to now is        0.4 secs

     per-process dynamical memory:     9.1 Mb

     Self-consistent Calculation

     iteration #  1     ecut=    24.00 Ry     beta= 0.70
     Davidson diagonalization with overlap
     ethr =  1.00E-02,  avg # of iterations =  4.8

     negative rho (up, down):  1.297E-01 0.000E+00

     total cpu time spent up to now is        0.7 secs

     total energy              =     -48.81194877 Ry
     estimated scf accuracy    <      15.35014771 Ry

     iteration #  2     ecut=    24.00 Ry     beta= 0.70
     Davidson diagonalization with overlap
     ethr =  1.00E-02,  avg # of iterations = 11.7

     negative rho (up, down):  2.521E-04 0.000E+00

     total cpu time spent up to now is        1.3 secs

     total energy              =     -21.24263490 Ry
     estimated scf accuracy    <     204.27029813 Ry

     iteration #  3     ecut=    24.00 Ry     beta= 0.70
     Davidson diagonalization with overlap
     ethr =  1.00E-02,  avg # of iterations = 10.0

     negative rho (up, down):  1.325E-03 0.000E+00

     total cpu time spent up to now is        4.4 secs

     total energy              =     -55.62373525 Ry
     estimated scf accuracy    <       2.89743462 Ry

     iteration #  4     ecut=    24.00 Ry     beta= 0.70
     Davidson diagonalization with overlap
     ethr =  9.05E-03,  avg # of iterations =  2.3

     negative rho (up, down):  2.821E-03 0.000E+00

     total cpu time spent up to now is        5.8 secs

     total energy              =     -55.77848098 Ry
     estimated scf accuracy    <       1.45507739 Ry

     iteration #  5     ecut=    24.00 Ry     beta= 0.70
     Davidson diagonalization with overlap
     ethr =  4.55E-03,  avg # of iterations =  1.0

     negative rho (up, down):  3.343E-03 0.000E+00

     total cpu time spent up to now is        6.5 secs

     total energy              =     -55.74650845 Ry
     estimated scf accuracy    <       1.20677043 Ry

     iteration #  6     ecut=    24.00 Ry     beta= 0.70
     Davidson diagonalization with overlap
     ethr =  3.77E-03,  avg # of iterations =  1.1

     negative rho (up, down):  5.265E-03 0.000E+00

     total cpu time spent up to now is        7.7 secs

     total energy              =     -55.65626630 Ry
     estimated scf accuracy    <       0.91741583 Ry

     iteration #  7     ecut=    24.00 Ry     beta= 0.70
     Davidson diagonalization with overlap
     ethr =  2.87E-03,  avg # of iterations =  1.1

     negative rho (up, down):  1.250E-02 0.000E+00

     total cpu time spent up to now is        9.1 secs

     total energy              =     -55.43615919 Ry
     estimated scf accuracy    <       0.67440247 Ry

     iteration #  8     ecut=    24.00 Ry     beta= 0.70
     Davidson diagonalization with overlap
     ethr =  2.11E-03,  avg # of iterations =  1.1

     negative rho (up, down):  1.642E-02 0.000E+00

     total cpu time spent up to now is       10.2 secs

     total energy              =     -55.39074935 Ry
     estimated scf accuracy    <       0.34269871 Ry

     iteration #  9     ecut=    24.00 Ry     beta= 0.70
     Davidson diagonalization with overlap
     ethr =  1.07E-03,  avg # of iterations =  1.7

     negative rho (up, down):  5.244E-02 0.000E+00

     total cpu time spent up to now is       11.3 secs

     total energy              =     -55.22320079 Ry
     estimated scf accuracy    <       0.26712489 Ry

     iteration # 10     ecut=    24.00 Ry     beta= 0.70
     Davidson diagonalization with overlap
     ethr =  8.35E-04,  avg # of iterations =  5.1

     negative rho (up, down):  6.785E-02 0.000E+00

     total cpu time spent up to now is       13.2 secs

     total energy              =     -55.22090498 Ry
     estimated scf accuracy    <       0.03757903 Ry

     iteration # 11     ecut=    24.00 Ry     beta= 0.70
     Davidson diagonalization with overlap
     ethr =  1.17E-04,  avg # of iterations =  7.5

     negative rho (up, down):  9.883E-02 0.000E+00

     total cpu time spent up to now is       15.0 secs

     total energy              =     -55.21192326 Ry
     estimated scf accuracy    <       0.01327860 Ry

     iteration # 12     ecut=    24.00 Ry     beta= 0.70
     Davidson diagonalization with overlap
     c_bands:  1 eigenvalues not converged
     c_bands:  1 eigenvalues not converged
     ethr =  4.15E-05,  avg # of iterations = 10.3

     negative rho (up, down):  9.439E-02 0.000E+00

     total cpu time spent up to now is       17.4 secs

     total energy              =     -55.21388838 Ry
     estimated scf accuracy    <       0.00069055 Ry

     iteration # 13     ecut=    24.00 Ry     beta= 0.70
     Davidson diagonalization with overlap
     c_bands:  1 eigenvalues not converged
     c_bands:  1 eigenvalues not converged
     c_bands:  1 eigenvalues not converged
     ethr =  2.16E-06,  avg # of iterations = 11.2

     negative rho (up, down):  9.777E-02 0.000E+00

     total cpu time spent up to now is       19.8 secs

     total energy              =     -55.21408720 Ry
     estimated scf accuracy    <       0.00023724 Ry

     iteration # 14     ecut=    24.00 Ry     beta= 0.70
     Davidson diagonalization with overlap
     ethr =  7.41E-07,  avg # of iterations =  8.5

     negative rho (up, down):  9.674E-02 0.000E+00

     total cpu time spent up to now is       22.3 secs

     total energy              =     -55.21414565 Ry
     estimated scf accuracy    <       0.00014679 Ry

     iteration # 15     ecut=    24.00 Ry     beta= 0.70
     Davidson diagonalization with overlap
     ethr =  4.59E-07,  avg # of iterations =  3.9

     negative rho (up, down):  9.685E-02 0.000E+00

     total cpu time spent up to now is       24.1 secs

     total energy              =     -55.21417746 Ry
     estimated scf accuracy    <       0.00000302 Ry

     iteration # 16     ecut=    24.00 Ry     beta= 0.70
     Davidson diagonalization with overlap
     ethr =  9.43E-09,  avg # of iterations =  3.9

     negative rho (up, down):  9.687E-02 0.000E+00

     total cpu time spent up to now is       26.0 secs

     total energy              =     -55.21417880 Ry
     estimated scf accuracy    <       0.00000326 Ry

     iteration # 17     ecut=    24.00 Ry     beta= 0.70
     Davidson diagonalization with overlap
     ethr =  9.43E-09,  avg # of iterations =  1.3

     negative rho (up, down):  9.678E-02 0.000E+00

     total cpu time spent up to now is       26.9 secs

     total energy              =     -55.21417891 Ry
     estimated scf accuracy    <       0.00000078 Ry

     iteration # 18     ecut=    24.00 Ry     beta= 0.70
     Davidson diagonalization with overlap
     ethr =  2.44E-09,  avg # of iterations =  2.0

     negative rho (up, down):  9.677E-02 0.000E+00

     total cpu time spent up to now is       28.0 secs

     total energy              =     -55.21417909 Ry
     estimated scf accuracy    <       0.00000002 Ry

     iteration # 19     ecut=    24.00 Ry     beta= 0.70
     Davidson diagonalization with overlap
     ethr =  5.70E-11,  avg # of iterations =  5.4

     negative rho (up, down):  9.677E-02 0.000E+00

     total cpu time spent up to now is       30.5 secs

     End of self-consistent calculation

          k = 0.0000 0.0000 0.0000 (  1077 PWs)   bands (ev):

   -35.5589 -25.5091 -25.5091 -24.9365 -24.9365 -24.2485 -12.9117 -11.7683
   -11.7683  -8.2211  -0.8556  -0.8556  -0.5899   1.2014   3.5707   6.0424
     6.4719   7.6942   7.6942   7.7230

          k = 0.0000 0.0962 0.0000 (  1089 PWs)   bands (ev):

   -35.5367 -27.3883 -27.2788 -24.3709 -22.9712 -22.6390 -12.8124 -11.9485
   -11.8427  -8.4086  -1.4015  -1.0583  -0.2891   2.1281   3.3675   6.2458
     6.6697   6.9831   7.2863   7.9070

          k = 0.0000 0.1925 0.0000 (  1078 PWs)   bands (ev):

   -35.4529 -29.2444 -28.9991 -23.8840 -20.7031 -20.0624 -12.9114 -12.2390
   -11.7229  -8.2904  -1.7512  -1.6175   1.1252   2.8690   3.3550   5.8690
     6.5362   6.9186   7.3137   8.4951

          k = 0.0000 0.2887 0.0000 (  1064 PWs)   bands (ev):

   -35.2816 -30.7790 -30.3460 -23.1235 -18.7570 -17.6702 -13.5384 -11.9857
   -10.8431  -7.7357  -2.5435  -1.5033   1.6581   2.5771   3.5412   4.9880
     6.3202   7.8820   8.1738   8.4080

          k = 0.0000 0.3849 0.0000 (  1044 PWs)   bands (ev):

   -35.0093 -31.9655 -31.3354 -22.1109 -17.6956 -16.8671 -12.9679 -10.7260
    -9.4061  -6.8621  -3.3995  -1.1738   0.4117   2.4591   3.2211   4.3194
     6.2782   6.9756   7.5004   9.6102

          k = 0.0000 0.4811 0.0000 (  1052 PWs)   bands (ev):

   -34.9167 -32.7622 -31.9244 -21.0502 -17.7134 -17.4116 -11.1460  -8.9294
    -8.2005  -5.9385  -4.4857  -1.6205  -0.0153   0.6121   2.7072   3.4956
     4.8099   5.4224   8.8325  11.6327

          k = 0.0000-0.5774 0.0000 (  1062 PWs)   bands (ev):

   -34.8411 -33.0507 -32.1404 -20.4378 -18.3791 -17.3782 -10.0769  -8.0821
    -7.9482  -5.3554  -4.9886  -1.4688  -0.9544  -0.3489   3.1055   3.2303
     3.5205   5.1236   9.1271  13.4985

          k = 0.0833 0.1443 0.0000 (  1077 PWs)   bands (ev):

   -35.4761 -28.8024 -28.5186 -24.0192 -21.2176 -20.8021 -12.6865 -12.3988
   -11.6552  -8.3288  -1.7179  -1.4398   0.7962   3.0784   3.1471   6.2259
     6.5441   6.7115   7.1199   8.3067

          k = 0.0833 0.2406 0.0000 (  1065 PWs)   bands (ev):

   -35.3430 -30.3430 -29.8545 -23.4363 -19.2235 -18.5743 -13.1497 -12.5054
   -10.9698  -8.0320  -2.1642  -1.7617   2.3164   2.5783   3.4433   5.3262
     5.7936   7.5684   7.9755   8.9955

          k = 0.0833 0.3368 0.0000 (  1061 PWs)   bands (ev):

   -35.1549 -31.6272 -30.9261 -22.6103 -17.8400 -16.9930 -13.3223 -11.7592
    -9.7761  -7.3887  -3.0858  -1.4043   0.8785   3.0480   3.2200   4.4806
     5.7826   7.5809   7.9024   8.9363

          k = 0.0833 0.4330 0.0000 (  1047 PWs)   bands (ev):

   -34.9553 -32.5784 -31.6618 -21.5435 -17.4494 -17.0941 -11.8650 -10.0212
    -8.2414  -6.4166  -4.1775  -1.3220   0.0009   1.9441   2.8669   3.8996
     4.7024   5.9256   8.9508  10.7315

          k = 0.0833 0.5292 0.0000 (  1043 PWs)   bands (ev):

   -34.8193 -33.1201 -32.0303 -20.6313 -18.0970 -17.1922 -10.2861  -8.3655
    -7.6302  -5.3658  -5.0629  -1.4962  -0.3915   0.4771   2.7220   3.2292
     3.8347   4.6459   9.8746  12.9783

          k = 0.1667 0.2887 0.0000 (  1057 PWs)   bands (ev):

   -35.1863 -31.5263 -30.7312 -22.7671 -17.6650 -17.3863 -12.9961 -12.4508
    -9.6787  -7.6285  -2.9071  -1.5459   1.4079   2.8067   3.9269   4.4618
     5.2828   7.8307   8.2955   8.6881

          k = 0.1667 0.3849 0.0000 (  1060 PWs)   bands (ev):

   -35.0268 -32.5342 -31.4490 -21.8875 -17.3083 -16.8460 -11.9420 -11.1847
    -7.9997  -6.9734  -4.0087  -1.2319   0.0662   2.2709   2.9105   3.5370
     5.0492   6.7919   8.3412  10.2263

          k = 0.1667 0.4811 0.0000 (  1048 PWs)   bands (ev):

   -34.8230 -33.2451 -31.8826 -21.0475 -17.7093 -16.8400 -10.5264  -9.3996
    -7.0055  -5.7219  -4.8911  -1.3584  -0.4220   1.2140   2.4444   2.5317
     3.4050   5.9334  10.3274  12.1658

          k = 0.1667 0.5774 0.0000 (  1040 PWs)   bands (ev):

   -34.6997 -33.5388 -32.0136 -20.6192 -17.9587 -16.8909  -9.7385  -8.4905
    -6.7960  -5.4843  -4.7051  -1.0528  -0.5897   0.5824   1.4093   2.4841
     3.1445   5.4511  11.2121  13.7980

          k = 0.2500 0.4330 0.0000 (  1052 PWs)   bands (ev):

   -34.8346 -33.2935 -31.8173 -21.2312 -17.5527 -16.6247 -10.2994 -10.2594
    -6.5158  -6.0499  -4.7099  -0.9554  -0.9225   1.4306   1.9233   2.4939
     3.2760   7.7943   8.9975  11.8476

          k = 0.2500 0.5292 0.0000 (  1041 PWs)   bands (ev):

   -34.5867 -33.8175 -31.9865 -20.7770 -17.6091 -16.7843  -9.5135  -9.1029
    -5.9672  -5.3726  -4.1903  -1.3317  -0.2667   0.3221   0.9638   1.6543
     2.0274   7.8717  11.0152  12.7832

          k = 0.3333 0.5774 0.0000 (  1050 PWs)   bands (ev):

   -34.2770 -34.2769 -32.0504 -20.7562 -17.2016 -17.2016  -9.1518  -9.1518
    -5.3893  -5.3893  -3.8641  -0.9682  -0.2044   0.0093   0.0094   1.1089
     1.1090   9.7774  11.3193  11.3193

     the Fermi energy is     4.3494 ev

!    total energy              =     -55.21417911 Ry
     estimated scf accuracy    <          3.0E-09 Ry
     smearing contrib. (-TS)   =       0.00019607 Ry
     internal energy E=F+TS    =     -55.21437518 Ry

     The total energy is F=E-TS. E is the sum of the following terms:
     one-electron contribution =   -2227.09083455 Ry
     hartree contribution      =    1124.86012783 Ry
     xc contribution           =     -43.90784975 Ry
     ewald contribution        =    1090.92418128 Ry

     convergence has been achieved in  19 iterations

     negative rho (up, down):  9.677E-02 0.000E+00

     Forces acting on atoms (cartesian axes, Ry/au):

     atom    1 type  1   force =     0.00000000    0.00000000  -27.13651818
     atom    2 type  1   force =     0.00000000   -0.00000000   -2.95406781
     atom    3 type  1   force =     0.00000000    0.00000000  -26.52891901
     atom    4 type  1   force =     0.00000000    0.00000000   23.83289789
     atom    5 type  1   force =     0.00000000    0.00000000  -23.83292497
     atom    6 type  1   force =     0.00000000    0.00000000   26.52892126
     atom    7 type  1   force =     0.00000000    0.00000000    2.95406431
     atom    8 type  1   force =     0.00000000   -0.00000000   27.13654651

     Total force =    63.512348     Total SCF correction =     0.000219


     Computing stress (Cartesian axis) and pressure


     negative rho (up, down):  9.677E-02 0.000E+00
          total   stress  (Ry/bohr**3)                   (kbar)     P=     8943.08
   0.01806098  -0.00000000   0.00000000         2656.86       -0.00        0.00
  -0.00000000   0.01806098   0.00000000           -0.00     2656.86        0.00
   0.00000000   0.00000000   0.14625960            0.00        0.00    21515.53


     Writing all to output data dir /run/media/rfa/SATA/Skripsi/DFT/Graphene-copy/tmp/gr-abc-4L.save/ :
     XML data file, charge density, pseudopotentials, collected wavefunctions

     init_run     :      0.28s CPU      0.32s WALL (       1 calls)
     electrons    :     41.48s CPU     30.13s WALL (       1 calls)
     forces       :      0.96s CPU      0.72s WALL (       1 calls)
     stress       :      1.51s CPU      1.03s WALL (       1 calls)

     Called by init_run:
     wfcinit      :      0.16s CPU      0.09s WALL (       1 calls)
     potinit      :      0.00s CPU      0.00s WALL (       1 calls)
     hinit0       :      0.12s CPU      0.22s WALL (       1 calls)

     Called by electrons:
     c_bands      :     37.67s CPU     27.40s WALL (      19 calls)
     sum_band     :      3.26s CPU      2.25s WALL (      19 calls)
     v_of_rho     :      0.09s CPU      0.08s WALL (      20 calls)
     newd         :      0.39s CPU      0.34s WALL (      20 calls)
     mix_rho      :      0.02s CPU      0.02s WALL (      19 calls)

     Called by c_bands:
     init_us_2    :      0.12s CPU      0.10s WALL (     779 calls)
     cegterg      :     35.51s CPU     25.88s WALL (     361 calls)

     Called by *egterg:
     cdiaghg      :      5.70s CPU      4.68s WALL (    2143 calls)
     h_psi        :     13.74s CPU      9.20s WALL (    2162 calls)
     s_psi        :      0.63s CPU      0.60s WALL (    2162 calls)
     g_psi        :      0.04s CPU      0.03s WALL (    1782 calls)

     Called by h_psi:
     h_psi:calbec :      7.96s CPU      5.12s WALL (    2162 calls)
     vloc_psi     :      4.96s CPU      3.32s WALL (    2162 calls)
     add_vuspsi   :      0.76s CPU      0.71s WALL (    2162 calls)

     General routines
     calbec       :     12.40s CPU      8.19s WALL (    2846 calls)
     fft          :      0.18s CPU      0.29s WALL (     245 calls)
     ffts         :      0.01s CPU      0.01s WALL (      19 calls)
     fftw         :      5.21s CPU      3.50s WALL (   52364 calls)

     Parallel routines

     PWSCF        :     44.33s CPU     32.44s WALL


   This run was terminated on:  15:23:40  16Apr2025            

=------------------------------------------------------------------------------=
   JOB DONE.
=------------------------------------------------------------------------------=
