
     Program PWSCF v.7.4.1 starts on 16Apr2025 at 15:35:17 

     This program is part of the open-source Quantum ESPRESSO suite
     for quantum simulation of materials; please cite
         "P. Giannozzi et al., J. Phys.:Condens. Matter 21 395502 (2009);
         "P. Giannozzi et al., J. Phys.:Condens. Matter 29 465901 (2017);
         "P. Giannozzi et al., J. Chem. Phys. 152 154105 (2020);
          URL http://www.quantum-espresso.org", 
     in publications or presentations arising from this work. More details at
     http://www.quantum-espresso.org/quote

     Parallel version (MPI), running on     7 processors

     MPI processes distributed on     1 nodes
     14422 MiB available memory on the printing compute node when the environment starts

     Waiting for input...
     Reading input from standard input

     Current dimensions of program PWSCF are:
     Max number of different atomic species (ntypx) = 10
     Max number of k-points (npk) =  40000
     Max angular momentum in pseudopotentials (lmaxx) =  4

     R & G space division:  proc/nbgrp/npool/nimage =       7
     Subspace diagonalization in iterative solution of the eigenvalue problem:
     a serial algorithm will be used


     Parallelization info
     --------------------
     sticks:   dense  smooth     PW     G-vecs:    dense   smooth      PW
     Min          51      51     15                 4783     4783     815
     Max          52      52     16                 4800     4800     838
     Sum         361     361    109                33523    33523    5791

     Using Slab Decomposition



     bravais-lattice index     =            4
     lattice parameter (alat)  =       4.6561  a.u.
     unit-cell volume          =     532.1899 (a.u.)^3
     number of atoms/cell      =            8
     number of atomic types    =            1
     number of electrons       =        32.00
     number of Kohn-Sham states=           20
     kinetic-energy cutoff     =      60.0000  Ry
     charge density cutoff     =     240.0000  Ry
     scf convergence threshold =      1.0E-08
     mixing beta               =       0.7000
     number of iterations used =            8  plain     mixing
     Exchange-correlation= PBE
                           (   1   4   3   4   0   0   0)

     celldm(1)=   4.656107  celldm(2)=   0.000000  celldm(3)=   6.087896
     celldm(4)=   0.000000  celldm(5)=   0.000000  celldm(6)=   0.000000

     crystal axes: (cart. coord. in units of alat)
               a(1) = (   1.000000   0.000000   0.000000 )  
               a(2) = (  -0.500000   0.866025   0.000000 )  
               a(3) = (   0.000000   0.000000   6.087896 )  

     reciprocal axes: (cart. coord. in units 2 pi/alat)
               b(1) = (  1.000000  0.577350 -0.000000 )  
               b(2) = (  0.000000  1.154701  0.000000 )  
               b(3) = (  0.000000 -0.000000  0.164260 )  


     PseudoPot. # 1 for C  read from file:
     /run/media/rfa/SATA/Skripsi/DFT/Graphene-copy/pseudo/C.pbe-n-rrkjus_psl.0.1.UPF
     MD5 check sum: 96a6a315177d77e6c95bf6fd3870f9e3
     Pseudo is Ultrasoft + core correction, Zval =  4.0
     Generated using &quot;atomic&quot; code by A. Dal Corso  v.6.3MaX
     Using radial grid of 1073 points,  4 beta functions with: 
                l(1) =   0
                l(2) =   0
                l(3) =   1
                l(4) =   1
     Q(r) pseudized with 0 coefficients 


     atomic species   valence    mass     pseudopotential
     C                 4.00    12.01070     C ( 1.00)

      6 Sym. Ops. (no inversion) found



   Cartesian axes

     site n.     atom                  positions (alat units)
         1        C      tau(   1) = (   0.0000000   0.5773503   3.0439478  )
         2        C      tau(   2) = (   0.5000000   0.2886751   3.0439478  )
         3        C      tau(   3) = (   0.0000000   0.0000000   3.2468777  )
         4        C      tau(   4) = (   0.0000000   0.5773503   3.2468777  )
         5        C      tau(   5) = (   0.5000000   0.2886751   3.4498075  )
         6        C      tau(   6) = (   0.0000000   0.0000000   3.4498075  )
         7        C      tau(   7) = (   0.0000000   0.5773503   3.6527374  )
         8        C      tau(   8) = (   0.5000000   0.2886751   3.6527374  )

     number of k points=    19  Marzari-Vanderbilt smearing, width (Ry)=  0.0200
                       cart. coord. in units 2pi/alat
        k(    1) = (   0.0000000   0.0000000   0.0000000), wk =   0.0138889
        k(    2) = (   0.0000000   0.0962250   0.0000000), wk =   0.0833333
        k(    3) = (   0.0000000   0.1924501   0.0000000), wk =   0.0833333
        k(    4) = (   0.0000000   0.2886751   0.0000000), wk =   0.0833333
        k(    5) = (   0.0000000   0.3849002   0.0000000), wk =   0.0833333
        k(    6) = (   0.0000000   0.4811252   0.0000000), wk =   0.0833333
        k(    7) = (   0.0000000  -0.5773503   0.0000000), wk =   0.0416667
        k(    8) = (   0.0833333   0.1443376   0.0000000), wk =   0.0833333
        k(    9) = (   0.0833333   0.2405626   0.0000000), wk =   0.1666667
        k(   10) = (   0.0833333   0.3367877   0.0000000), wk =   0.1666667
        k(   11) = (   0.0833333   0.4330127   0.0000000), wk =   0.1666667
        k(   12) = (   0.0833333   0.5292377   0.0000000), wk =   0.1666667
        k(   13) = (   0.1666667   0.2886751   0.0000000), wk =   0.0833333
        k(   14) = (   0.1666667   0.3849002   0.0000000), wk =   0.1666667
        k(   15) = (   0.1666667   0.4811252   0.0000000), wk =   0.1666667
        k(   16) = (   0.1666667   0.5773503   0.0000000), wk =   0.0833333
        k(   17) = (   0.2500000   0.4330127   0.0000000), wk =   0.0833333
        k(   18) = (   0.2500000   0.5292377   0.0000000), wk =   0.1666667
        k(   19) = (   0.3333333   0.5773503   0.0000000), wk =   0.0277778

     Dense  grid:    33523 G-vectors     FFT dimensions: (  24,  24, 144)

     Estimated max dynamical RAM per process >      12.18 MB

     Estimated total dynamical RAM >      85.27 MB

     Check: negative core charge=   -0.000005

     Initial potential from superposition of free atoms

     starting charge      31.9997, renormalised to      32.0000

     negative rho (up, down):  1.481E-04 0.000E+00
     Starting wfcs are   32 randomized atomic wfcs

     total cpu time spent up to now is        1.9 secs

     per-process dynamical memory:    14.2 Mb

     Self-consistent Calculation

     iteration #  1     ecut=    60.00 Ry     beta= 0.70
     Davidson diagonalization with overlap
     ethr =  1.00E-02,  avg # of iterations =  8.8

     negative rho (up, down):  1.178E-03 0.000E+00

     total cpu time spent up to now is        9.8 secs

     total energy              =     -50.26969256 Ry
     estimated scf accuracy    <      18.19514101 Ry

     iteration #  2     ecut=    60.00 Ry     beta= 0.70
     Davidson diagonalization with overlap
     c_bands:  1 eigenvalues not converged
     c_bands:  1 eigenvalues not converged
     c_bands:  3 eigenvalues not converged
     c_bands:  3 eigenvalues not converged
     c_bands:  2 eigenvalues not converged
     c_bands:  2 eigenvalues not converged
     c_bands:  2 eigenvalues not converged
     ethr =  1.00E-02,  avg # of iterations = 17.6

     total cpu time spent up to now is       21.6 secs

     total energy              =     -34.71939350 Ry
     estimated scf accuracy    <     101.99280882 Ry

     iteration #  3     ecut=    60.00 Ry     beta= 0.70
     Davidson diagonalization with overlap
     c_bands:  3 eigenvalues not converged
     c_bands:  1 eigenvalues not converged
     c_bands:  2 eigenvalues not converged
     c_bands:  1 eigenvalues not converged
     ethr =  1.00E-02,  avg # of iterations = 13.2

     total cpu time spent up to now is       30.8 secs

     total energy              =     -57.85919110 Ry
     estimated scf accuracy    <       3.24600621 Ry

     iteration #  4     ecut=    60.00 Ry     beta= 0.70
     Davidson diagonalization with overlap
     ethr =  1.00E-02,  avg # of iterations =  3.7

     total cpu time spent up to now is       33.4 secs

     total energy              =     -58.04555031 Ry
     estimated scf accuracy    <       1.40296136 Ry

     iteration #  5     ecut=    60.00 Ry     beta= 0.70
     Davidson diagonalization with overlap
     ethr =  4.38E-03,  avg # of iterations =  5.4

     total cpu time spent up to now is       37.1 secs

     total energy              =     -58.05462691 Ry
     estimated scf accuracy    <       2.51717302 Ry

     iteration #  6     ecut=    60.00 Ry     beta= 0.70
     Davidson diagonalization with overlap
     ethr =  4.38E-03,  avg # of iterations =  1.3

     total cpu time spent up to now is       39.2 secs

     total energy              =     -58.08406861 Ry
     estimated scf accuracy    <       0.86988895 Ry

     iteration #  7     ecut=    60.00 Ry     beta= 0.70
     Davidson diagonalization with overlap
     ethr =  2.72E-03,  avg # of iterations =  1.6

     total cpu time spent up to now is       41.2 secs

     total energy              =     -58.08738828 Ry
     estimated scf accuracy    <       0.51047523 Ry

     iteration #  8     ecut=    60.00 Ry     beta= 0.70
     Davidson diagonalization with overlap
     ethr =  1.60E-03,  avg # of iterations =  3.3

     total cpu time spent up to now is       44.0 secs

     total energy              =     -58.11562570 Ry
     estimated scf accuracy    <       0.40515139 Ry

     iteration #  9     ecut=    60.00 Ry     beta= 0.70
     Davidson diagonalization with overlap
     ethr =  1.27E-03,  avg # of iterations =  1.3

     total cpu time spent up to now is       45.6 secs

     total energy              =     -58.13892264 Ry
     estimated scf accuracy    <       0.36270132 Ry

     iteration # 10     ecut=    60.00 Ry     beta= 0.70
     Davidson diagonalization with overlap
     ethr =  1.13E-03,  avg # of iterations =  1.1

     total cpu time spent up to now is       47.4 secs

     total energy              =     -58.04712723 Ry
     estimated scf accuracy    <       0.35793753 Ry

     iteration # 11     ecut=    60.00 Ry     beta= 0.70
     Davidson diagonalization with overlap
     ethr =  1.12E-03,  avg # of iterations =  2.7

     negative rho (up, down):  1.362E-03 0.000E+00

     total cpu time spent up to now is       49.7 secs

     total energy              =     -57.96696062 Ry
     estimated scf accuracy    <       0.19912025 Ry

     iteration # 12     ecut=    60.00 Ry     beta= 0.70
     Davidson diagonalization with overlap
     ethr =  6.22E-04,  avg # of iterations = 10.3

     negative rho (up, down):  1.261E-03 0.000E+00

     total cpu time spent up to now is       56.5 secs

     total energy              =     -58.14760682 Ry
     estimated scf accuracy    <       0.27342281 Ry

     iteration # 13     ecut=    60.00 Ry     beta= 0.70
     Davidson diagonalization with overlap
     ethr =  6.22E-04,  avg # of iterations =  1.3

     negative rho (up, down):  5.954E-03 0.000E+00

     total cpu time spent up to now is       59.9 secs

     total energy              =     -58.19431472 Ry
     estimated scf accuracy    <       0.38081135 Ry

     iteration # 14     ecut=    60.00 Ry     beta= 0.70
     Davidson diagonalization with overlap
     ethr =  6.22E-04,  avg # of iterations =  5.4

     negative rho (up, down):  2.715E-03 0.000E+00

     total cpu time spent up to now is       63.9 secs

     total energy              =     -58.12628462 Ry
     estimated scf accuracy    <       0.59831924 Ry

     iteration # 15     ecut=    60.00 Ry     beta= 0.70
     Davidson diagonalization with overlap
     ethr =  6.22E-04,  avg # of iterations =  1.1

     negative rho (up, down):  1.956E-03 0.000E+00

     total cpu time spent up to now is       65.9 secs

     total energy              =     -58.09560878 Ry
     estimated scf accuracy    <       0.33204752 Ry

     iteration # 16     ecut=    60.00 Ry     beta= 0.70
     Davidson diagonalization with overlap
     ethr =  6.22E-04,  avg # of iterations =  1.0

     negative rho (up, down):  1.668E-03 0.000E+00

     total cpu time spent up to now is       67.9 secs

     total energy              =     -58.07667882 Ry
     estimated scf accuracy    <       0.23158413 Ry

     iteration # 17     ecut=    60.00 Ry     beta= 0.70
     Davidson diagonalization with overlap
     ethr =  6.22E-04,  avg # of iterations =  1.0

     negative rho (up, down):  1.346E-03 0.000E+00

     total cpu time spent up to now is       69.7 secs

     total energy              =     -58.04799604 Ry
     estimated scf accuracy    <       0.17405816 Ry

     iteration # 18     ecut=    60.00 Ry     beta= 0.70
     Davidson diagonalization with overlap
     ethr =  5.44E-04,  avg # of iterations =  1.1

     negative rho (up, down):  3.246E-04 0.000E+00

     total cpu time spent up to now is       72.2 secs

     total energy              =     -58.00983060 Ry
     estimated scf accuracy    <       0.08846251 Ry

     iteration # 19     ecut=    60.00 Ry     beta= 0.70
     Davidson diagonalization with overlap
     c_bands:  2 eigenvalues not converged
     ethr =  2.76E-04,  avg # of iterations =  8.1

     negative rho (up, down):  7.006E-04 0.000E+00

     total cpu time spent up to now is       77.1 secs

     total energy              =     -58.03322308 Ry
     estimated scf accuracy    <       0.01769857 Ry

     iteration # 20     ecut=    60.00 Ry     beta= 0.70
     Davidson diagonalization with overlap
     c_bands:  1 eigenvalues not converged
     ethr =  5.53E-05,  avg # of iterations = 10.4

     negative rho (up, down):  9.328E-04 0.000E+00

     total cpu time spent up to now is       84.4 secs

     total energy              =     -58.04432260 Ry
     estimated scf accuracy    <       0.00500179 Ry

     iteration # 21     ecut=    60.00 Ry     beta= 0.70
     Davidson diagonalization with overlap
     c_bands:  1 eigenvalues not converged
     ethr =  1.56E-05,  avg # of iterations = 11.2

     negative rho (up, down):  1.098E-03 0.000E+00

     total cpu time spent up to now is       91.0 secs

     total energy              =     -58.04679637 Ry
     estimated scf accuracy    <       0.00133005 Ry

     iteration # 22     ecut=    60.00 Ry     beta= 0.70
     Davidson diagonalization with overlap
     c_bands:  3 eigenvalues not converged
     c_bands:  1 eigenvalues not converged
     c_bands:  1 eigenvalues not converged
     ethr =  4.16E-06,  avg # of iterations = 11.8

     negative rho (up, down):  1.189E-03 0.000E+00

     total cpu time spent up to now is       98.1 secs

     total energy              =     -58.04722112 Ry
     estimated scf accuracy    <       0.00053469 Ry

     iteration # 23     ecut=    60.00 Ry     beta= 0.70
     Davidson diagonalization with overlap
     c_bands:  1 eigenvalues not converged
     ethr =  1.67E-06,  avg # of iterations = 10.0

     negative rho (up, down):  1.251E-03 0.000E+00

     total cpu time spent up to now is      103.7 secs

     total energy              =     -58.04746054 Ry
     estimated scf accuracy    <       0.00004728 Ry

     iteration # 24     ecut=    60.00 Ry     beta= 0.70
     Davidson diagonalization with overlap
     c_bands:  1 eigenvalues not converged
     ethr =  1.48E-07,  avg # of iterations = 12.1

     negative rho (up, down):  1.256E-03 0.000E+00

     total cpu time spent up to now is      114.0 secs

     total energy              =     -58.04758561 Ry
     estimated scf accuracy    <       0.00001545 Ry

     iteration # 25     ecut=    60.00 Ry     beta= 0.70
     Davidson diagonalization with overlap
     ethr =  4.83E-08,  avg # of iterations =  4.8

     negative rho (up, down):  1.253E-03 0.000E+00

     total cpu time spent up to now is      118.7 secs

     total energy              =     -58.04758884 Ry
     estimated scf accuracy    <       0.00000482 Ry

     iteration # 26     ecut=    60.00 Ry     beta= 0.70
     Davidson diagonalization with overlap
     ethr =  1.50E-08,  avg # of iterations =  5.3

     negative rho (up, down):  1.258E-03 0.000E+00

     total cpu time spent up to now is      123.2 secs

     total energy              =     -58.04759197 Ry
     estimated scf accuracy    <       0.00000052 Ry

     iteration # 27     ecut=    60.00 Ry     beta= 0.70
     Davidson diagonalization with overlap
     ethr =  1.63E-09,  avg # of iterations =  9.4

     negative rho (up, down):  1.261E-03 0.000E+00

     total cpu time spent up to now is      132.1 secs

     total energy              =     -58.04759246 Ry
     estimated scf accuracy    <       0.00000120 Ry

     iteration # 28     ecut=    60.00 Ry     beta= 0.70
     Davidson diagonalization with overlap
     ethr =  1.63E-09,  avg # of iterations =  1.9

     negative rho (up, down):  1.260E-03 0.000E+00

     total cpu time spent up to now is      134.4 secs

     total energy              =     -58.04759251 Ry
     estimated scf accuracy    <       0.00000015 Ry

     iteration # 29     ecut=    60.00 Ry     beta= 0.70
     Davidson diagonalization with overlap
     ethr =  4.79E-10,  avg # of iterations =  6.6

     negative rho (up, down):  1.260E-03 0.000E+00

     total cpu time spent up to now is      140.9 secs

     total energy              =     -58.04759265 Ry
     estimated scf accuracy    <       0.00000004 Ry

     iteration # 30     ecut=    60.00 Ry     beta= 0.70
     Davidson diagonalization with overlap
     ethr =  1.35E-10,  avg # of iterations =  4.7

     negative rho (up, down):  1.260E-03 0.000E+00

     total cpu time spent up to now is      144.7 secs

     End of self-consistent calculation

          k = 0.0000 0.0000 0.0000 (  4149 PWs)   bands (ev):

   -34.8567 -24.5100 -24.0124 -24.0124 -23.6677 -23.6677 -14.4783 -10.3873
   -10.3873  -8.6939  -1.8176  -0.2916   0.2958   0.2958   4.9458   7.3752
     7.6036   7.9400   8.4766   8.4771

          k = 0.0000 0.0962 0.0000 (  4170 PWs)   bands (ev):

   -34.8328 -26.1490 -25.8736 -24.2692 -21.5743 -21.3715 -14.3437 -10.5890
   -10.5713  -8.7940  -2.4879  -0.5310   0.8668   1.5801   4.8321   7.2752
     7.7843   7.9950   8.1255   8.1508

          k = 0.0000 0.1925 0.0000 (  4194 PWs)   bands (ev):

   -34.7584 -28.0734 -27.5848 -23.8364 -19.2621 -18.7416 -14.0632 -11.3179
   -10.9317  -8.5872  -2.8106  -1.1749   2.2759   2.8407   4.3604   6.6785
     7.3324   8.0141   8.3948   8.7576

          k = 0.0000 0.2887 0.0000 (  4186 PWs)   bands (ev):

   -34.6282 -29.6684 -28.9449 -23.1275 -17.3000 -16.3071 -14.2631 -11.6478
   -10.7914  -7.8620  -2.5147  -1.9611   2.0792   3.4542   3.8438   5.9419
     6.9843   7.6312   9.2098   9.7565

          k = 0.0000 0.3849 0.0000 (  4180 PWs)   bands (ev):

   -34.4418 -30.9093 -29.9292 -22.1742 -16.2579 -16.2501 -13.4014 -10.8431
    -9.5638  -6.7765  -3.0315  -1.5957   0.8266   2.8114   2.9956   5.0385
     6.1565   7.4777   8.2568  11.0485

          k = 0.0000 0.4811 0.0000 (  4172 PWs)   bands (ev):

   -34.2322 -31.7543 -30.5244 -21.0447 -17.7233 -15.9739 -11.7375 -10.0930
    -7.6614  -5.3797  -3.7999  -1.1031   0.5377   1.2917   1.7388   4.0775
     4.6785   6.0693   9.5457  13.0101

          k = 0.0000-0.5774 0.0000 (  4184 PWs)   bands (ev):

   -34.1227 -32.0766 -30.7236 -20.2032 -18.7123 -15.9440 -10.8518 -10.0768
    -6.6064  -4.4203  -4.2105  -0.4984  -0.4668   0.4043   2.0773   3.1420
     3.9326   5.7170   9.8676  14.4258

          k = 0.0833 0.1443 0.0000 (  4169 PWs)   bands (ev):

   -34.7834 -27.6135 -27.1290 -23.9917 -19.8217 -19.4909 -14.1168 -11.3324
   -10.5684  -8.7533  -2.8179  -0.9751   1.9269   2.6588   4.5172   6.9826
     7.1611   8.0582   8.2034   8.5644

          k = 0.0833 0.2406 0.0000 (  4180 PWs)   bands (ev):

   -34.6803 -29.1874 -28.4590 -23.4270 -17.7947 -17.2010 -13.9395 -12.2509
   -10.3912  -8.3183  -2.6894  -1.7290   2.6969   3.5002   3.8160   6.2214
     6.5379   8.0091   8.9303   9.3784

          k = 0.0833 0.3368 0.0000 (  4175 PWs)   bands (ev):

   -34.5184 -30.5245 -29.5386 -22.6030 -16.4100 -15.8404 -13.9567 -11.8849
    -9.5526  -7.4355  -2.7052  -1.9802   1.4105   3.1263   3.8836   5.3812
     6.1762   7.6622   8.3013  10.3891

          k = 0.0833 0.4330 0.0000 (  4187 PWs)   bands (ev):

   -34.3068 -31.5388 -30.2822 -21.5723 -16.9988 -15.8789 -12.5087 -10.6156
    -8.1179  -6.0664  -3.5470  -1.2453   0.3730   2.1174   2.8226   4.4025
     4.7367   6.3598   9.4741  12.0380

          k = 0.0833 0.5292 0.0000 (  4195 PWs)   bands (ev):

   -34.1156 -32.1353 -30.6594 -20.5050 -18.2842 -15.8631 -11.2095 -10.0733
    -6.6728  -4.5665  -4.2080  -0.8326   0.0715   0.7519   2.3109   3.1657
     3.8243   5.2338  10.4961  13.9674

          k = 0.1667 0.2887 0.0000 (  4170 PWs)   bands (ev):

   -34.5429 -30.4065 -29.3531 -22.7650 -16.2185 -16.1047 -13.6986 -12.7236
    -9.1379  -7.9024  -2.5018  -2.2665   2.2167   2.4660   4.8631   5.2333
     6.2293   7.1791   8.4070  10.1967

          k = 0.1667 0.3849 0.0000 (  4172 PWs)   bands (ev):

   -34.3425 -31.4633 -30.0794 -21.8867 -16.5187 -15.5848 -13.0741 -11.4464
    -7.6578  -6.8570  -3.3000  -1.5498   0.8150   1.8850   3.6636   4.2856
     5.7975   6.5705   8.4572  11.5328

          k = 0.1667 0.4811 0.0000 (  4170 PWs)   bands (ev):

   -34.1005 -32.2413 -30.5418 -20.9142 -17.5384 -15.7337 -11.8394 -10.2996
    -6.6517  -4.7327  -4.0672  -0.8201  -0.0958   1.0408   2.5844   3.1748
     4.3368   5.2290  10.5808  12.9109

          k = 0.1667 0.5774 0.0000 (  4178 PWs)   bands (ev):

   -33.9589 -32.5647 -30.6996 -20.3305 -18.1662 -15.8402 -11.1127 -10.1461
    -5.7778  -4.7494  -3.4265  -0.5156  -0.1166   0.4203   1.4234   3.0693
     3.9016   4.4722  11.7104  13.4164

          k = 0.2500 0.4330 0.0000 (  4156 PWs)   bands (ev):

   -34.0929 -32.2899 -30.4871 -21.0767 -17.1343 -15.7153 -12.1437 -10.4958
    -6.4849  -5.0165  -3.7546  -0.9613  -0.0923   0.9886   2.2970   3.2629
     4.4414   6.6066   9.2905  12.9184

          k = 0.2500 0.5292 0.0000 (  4161 PWs)   bands (ev):

   -33.8068 -32.8810 -30.7041 -20.4458 -17.5211 -16.1354 -11.1919 -10.2221
    -5.4244  -4.4096  -2.8381  -0.7969  -0.4571   0.5392   1.2799   2.3405
     2.8157   6.7321  10.8831  12.9120

          k = 0.3333 0.5774 0.0000 (  4152 PWs)   bands (ev):

   -33.4049 -33.4049 -30.7594 -20.3122 -16.8991 -16.8991 -10.5724 -10.5724
    -4.5775  -4.5775  -2.2311  -1.2197   0.4062   0.6195   0.6196   1.6522
     1.6523   8.0603  11.2602  11.2602

     the Fermi energy is     4.7492 ev

!    total energy              =     -58.04759266 Ry
     estimated scf accuracy    <          7.6E-09 Ry
     smearing contrib. (-TS)   =       0.00112141 Ry
     internal energy E=F+TS    =     -58.04871407 Ry

     The total energy is F=E-TS. E is the sum of the following terms:
     one-electron contribution =   -2233.43273018 Ry
     hartree contribution      =    1128.61879011 Ry
     xc contribution           =     -44.15895554 Ry
     ewald contribution        =    1090.92418155 Ry

     convergence has been achieved in  30 iterations

     negative rho (up, down):  1.260E-03 0.000E+00

     Forces acting on atoms (cartesian axes, Ry/au):

     atom    1 type  1   force =     0.00000000    0.00000000  -24.10004616
     atom    2 type  1   force =     0.00000000    0.00000000   -2.43188590
     atom    3 type  1   force =     0.00000000    0.00000000  -23.45032871
     atom    4 type  1   force =     0.00000000    0.00000000   21.32859534
     atom    5 type  1   force =     0.00000000    0.00000000  -21.32864297
     atom    6 type  1   force =     0.00000000    0.00000000   23.45032451
     atom    7 type  1   force =     0.00000000    0.00000000    2.43190174
     atom    8 type  1   force =     0.00000000   -0.00000000   24.10008213

     Total force =    56.419057     Total SCF correction =     0.000387


     Computing stress (Cartesian axis) and pressure


     negative rho (up, down):  1.260E-03 0.000E+00
          total   stress  (Ry/bohr**3)                   (kbar)     P=     9901.93
   0.02863310   0.00000000   0.00000000         4212.08        0.00        0.00
   0.00000000   0.02863310   0.00000000            0.00     4212.08        0.00
   0.00000000   0.00000000   0.14466970            0.00        0.00    21281.65


     Writing all to output data dir /run/media/rfa/SATA/Skripsi/DFT/Graphene-copy/tmp/gr-abc-4L.save/ :
     XML data file, charge density, pseudopotentials, collected wavefunctions

     init_run     :      1.65s CPU      1.81s WALL (       1 calls)
     electrons    :    185.32s CPU    142.81s WALL (       1 calls)
     forces       :      0.87s CPU      0.66s WALL (       1 calls)
     stress       :      2.60s CPU      1.91s WALL (       1 calls)

     Called by init_run:
     wfcinit      :      1.16s CPU      1.01s WALL (       1 calls)
     potinit      :      0.02s CPU      0.02s WALL (       1 calls)
     hinit0       :      0.34s CPU      0.65s WALL (       1 calls)

     Called by electrons:
     c_bands      :    170.40s CPU    130.96s WALL (      30 calls)
     sum_band     :     13.39s CPU     10.38s WALL (      30 calls)
     v_of_rho     :      0.40s CPU      0.42s WALL (      31 calls)
     newd         :      0.93s CPU      0.88s WALL (      31 calls)
     mix_rho      :      0.20s CPU      0.16s WALL (      30 calls)

     Called by c_bands:
     init_us_2    :      1.10s CPU      0.77s WALL (    1197 calls)
     cegterg      :    165.02s CPU    127.21s WALL (     570 calls)

     Called by *egterg:
     cdiaghg      :     10.99s CPU      8.91s WALL (    3938 calls)
     h_psi        :     84.02s CPU     68.43s WALL (    3957 calls)
     s_psi        :      3.89s CPU      3.28s WALL (    3957 calls)
     g_psi        :      0.32s CPU      0.18s WALL (    3368 calls)

     Called by h_psi:
     h_psi:calbec :     39.17s CPU     30.35s WALL (    3957 calls)
     vloc_psi     :     39.62s CPU     33.35s WALL (    3957 calls)
     add_vuspsi   :      4.85s CPU      4.45s WALL (    3957 calls)

     General routines
     calbec       :     48.08s CPU     37.21s WALL (    4850 calls)
     fft          :      0.57s CPU      0.88s WALL (     366 calls)
     ffts         :      0.04s CPU      0.03s WALL (      30 calls)
     fftw         :     41.86s CPU     35.17s WALL (   94574 calls)

     Parallel routines

     PWSCF        :   3m10.61s CPU   2m27.76s WALL


   This run was terminated on:  15:37:45  16Apr2025            

=------------------------------------------------------------------------------=
   JOB DONE.
=------------------------------------------------------------------------------=
