
     Program PWSCF v.7.4.1 starts on 16Apr2025 at 15:22:31 

     This program is part of the open-source Quantum ESPRESSO suite
     for quantum simulation of materials; please cite
         "P. Giannozzi et al., J. Phys.:Condens. Matter 21 395502 (2009);
         "P. Giannozzi et al., J. Phys.:Condens. Matter 29 465901 (2017);
         "P. Giannozzi et al., J. Chem. Phys. 152 154105 (2020);
          URL http://www.quantum-espresso.org", 
     in publications or presentations arising from this work. More details at
     http://www.quantum-espresso.org/quote

     Parallel version (MPI), running on     7 processors

     MPI processes distributed on     1 nodes
     14519 MiB available memory on the printing compute node when the environment starts

     Waiting for input...
     Reading input from standard input

     Current dimensions of program PWSCF are:
     Max number of different atomic species (ntypx) = 10
     Max number of k-points (npk) =  40000
     Max angular momentum in pseudopotentials (lmaxx) =  4

     R & G space division:  proc/nbgrp/npool/nimage =       7
     Subspace diagonalization in iterative solution of the eigenvalue problem:
     a serial algorithm will be used


     Parallelization info
     --------------------
     sticks:   dense  smooth     PW     G-vecs:    dense   smooth      PW
     Min          18      18      6                 1042     1042     210
     Max          19      19      7                 1062     1062     224
     Sum         127     127     43                 7339     7339    1521

     Using Slab Decomposition



     bravais-lattice index     =            4
     lattice parameter (alat)  =       4.6561  a.u.
     unit-cell volume          =     532.1899 (a.u.)^3
     number of atoms/cell      =            8
     number of atomic types    =            1
     number of electrons       =        32.00
     number of Kohn-Sham states=           20
     kinetic-energy cutoff     =      22.0000  Ry
     charge density cutoff     =      88.0000  Ry
     scf convergence threshold =      1.0E-08
     mixing beta               =       0.7000
     number of iterations used =            8  plain     mixing
     Exchange-correlation= PBE
                           (   1   4   3   4   0   0   0)

     celldm(1)=   4.656107  celldm(2)=   0.000000  celldm(3)=   6.087896
     celldm(4)=   0.000000  celldm(5)=   0.000000  celldm(6)=   0.000000

     crystal axes: (cart. coord. in units of alat)
               a(1) = (   1.000000   0.000000   0.000000 )  
               a(2) = (  -0.500000   0.866025   0.000000 )  
               a(3) = (   0.000000   0.000000   6.087896 )  

     reciprocal axes: (cart. coord. in units 2 pi/alat)
               b(1) = (  1.000000  0.577350 -0.000000 )  
               b(2) = (  0.000000  1.154701  0.000000 )  
               b(3) = (  0.000000 -0.000000  0.164260 )  


     PseudoPot. # 1 for C  read from file:
     /run/media/rfa/SATA/Skripsi/DFT/Graphene-copy/pseudo/C.pbe-n-rrkjus_psl.0.1.UPF
     MD5 check sum: 96a6a315177d77e6c95bf6fd3870f9e3
     Pseudo is Ultrasoft + core correction, Zval =  4.0
     Generated using &quot;atomic&quot; code by A. Dal Corso  v.6.3MaX
     Using radial grid of 1073 points,  4 beta functions with: 
                l(1) =   0
                l(2) =   0
                l(3) =   1
                l(4) =   1
     Q(r) pseudized with 0 coefficients 


     atomic species   valence    mass     pseudopotential
     C                 4.00    12.01070     C ( 1.00)

      6 Sym. Ops. (no inversion) found



   Cartesian axes

     site n.     atom                  positions (alat units)
         1        C      tau(   1) = (   0.0000000   0.5773503   3.0439478  )
         2        C      tau(   2) = (   0.5000000   0.2886751   3.0439478  )
         3        C      tau(   3) = (   0.0000000   0.0000000   3.2468777  )
         4        C      tau(   4) = (   0.0000000   0.5773503   3.2468777  )
         5        C      tau(   5) = (   0.5000000   0.2886751   3.4498075  )
         6        C      tau(   6) = (   0.0000000   0.0000000   3.4498075  )
         7        C      tau(   7) = (   0.0000000   0.5773503   3.6527374  )
         8        C      tau(   8) = (   0.5000000   0.2886751   3.6527374  )

     number of k points=    19  Marzari-Vanderbilt smearing, width (Ry)=  0.0200
                       cart. coord. in units 2pi/alat
        k(    1) = (   0.0000000   0.0000000   0.0000000), wk =   0.0138889
        k(    2) = (   0.0000000   0.0962250   0.0000000), wk =   0.0833333
        k(    3) = (   0.0000000   0.1924501   0.0000000), wk =   0.0833333
        k(    4) = (   0.0000000   0.2886751   0.0000000), wk =   0.0833333
        k(    5) = (   0.0000000   0.3849002   0.0000000), wk =   0.0833333
        k(    6) = (   0.0000000   0.4811252   0.0000000), wk =   0.0833333
        k(    7) = (   0.0000000  -0.5773503   0.0000000), wk =   0.0416667
        k(    8) = (   0.0833333   0.1443376   0.0000000), wk =   0.0833333
        k(    9) = (   0.0833333   0.2405626   0.0000000), wk =   0.1666667
        k(   10) = (   0.0833333   0.3367877   0.0000000), wk =   0.1666667
        k(   11) = (   0.0833333   0.4330127   0.0000000), wk =   0.1666667
        k(   12) = (   0.0833333   0.5292377   0.0000000), wk =   0.1666667
        k(   13) = (   0.1666667   0.2886751   0.0000000), wk =   0.0833333
        k(   14) = (   0.1666667   0.3849002   0.0000000), wk =   0.1666667
        k(   15) = (   0.1666667   0.4811252   0.0000000), wk =   0.1666667
        k(   16) = (   0.1666667   0.5773503   0.0000000), wk =   0.0833333
        k(   17) = (   0.2500000   0.4330127   0.0000000), wk =   0.0833333
        k(   18) = (   0.2500000   0.5292377   0.0000000), wk =   0.1666667
        k(   19) = (   0.3333333   0.5773503   0.0000000), wk =   0.0277778

     Dense  grid:     7339 G-vectors     FFT dimensions: (  15,  15,  90)

     Estimated max dynamical RAM per process >       2.84 MB

     Estimated total dynamical RAM >      19.85 MB

     Check: negative core charge=   -0.000307

     Initial potential from superposition of free atoms

     starting charge      31.9997, renormalised to      32.0000

     negative rho (up, down):  1.475E-02 0.000E+00
     Starting wfcs are   32 randomized atomic wfcs

     total cpu time spent up to now is        0.9 secs

     per-process dynamical memory:     8.9 Mb

     Self-consistent Calculation

     iteration #  1     ecut=    22.00 Ry     beta= 0.70
     Davidson diagonalization with overlap
     ethr =  1.00E-02,  avg # of iterations =  4.1

     negative rho (up, down):  1.507E-01 0.000E+00

     total cpu time spent up to now is        3.0 secs

     total energy              =     -47.78605539 Ry
     estimated scf accuracy    <      14.23279942 Ry

     iteration #  2     ecut=    22.00 Ry     beta= 0.70
     Davidson diagonalization with overlap
     ethr =  1.00E-02,  avg # of iterations = 10.7

     negative rho (up, down):  5.534E-04 0.000E+00

     total cpu time spent up to now is        6.1 secs

     total energy              =     -22.03555226 Ry
     estimated scf accuracy    <     194.76812886 Ry

     iteration #  3     ecut=    22.00 Ry     beta= 0.70
     Davidson diagonalization with overlap
     ethr =  1.00E-02,  avg # of iterations =  9.1

     negative rho (up, down):  2.399E-03 0.000E+00

     total cpu time spent up to now is        8.9 secs

     total energy              =     -54.16583293 Ry
     estimated scf accuracy    <       2.66459205 Ry

     iteration #  4     ecut=    22.00 Ry     beta= 0.70
     Davidson diagonalization with overlap
     ethr =  8.33E-03,  avg # of iterations =  2.1

     negative rho (up, down):  6.209E-03 0.000E+00

     total cpu time spent up to now is        9.8 secs

     total energy              =     -54.31429529 Ry
     estimated scf accuracy    <       1.37018368 Ry

     iteration #  5     ecut=    22.00 Ry     beta= 0.70
     Davidson diagonalization with overlap
     ethr =  4.28E-03,  avg # of iterations =  1.1

     negative rho (up, down):  8.008E-03 0.000E+00

     total cpu time spent up to now is       10.8 secs

     total energy              =     -54.26714856 Ry
     estimated scf accuracy    <       0.90534859 Ry

     iteration #  6     ecut=    22.00 Ry     beta= 0.70
     Davidson diagonalization with overlap
     ethr =  2.83E-03,  avg # of iterations =  1.4

     negative rho (up, down):  1.085E-02 0.000E+00

     total cpu time spent up to now is       11.7 secs

     total energy              =     -54.18512751 Ry
     estimated scf accuracy    <       0.84431520 Ry

     iteration #  7     ecut=    22.00 Ry     beta= 0.70
     Davidson diagonalization with overlap
     ethr =  2.64E-03,  avg # of iterations =  1.1

     negative rho (up, down):  2.102E-02 0.000E+00

     total cpu time spent up to now is       12.5 secs

     total energy              =     -54.00331344 Ry
     estimated scf accuracy    <       0.61480585 Ry

     iteration #  8     ecut=    22.00 Ry     beta= 0.70
     Davidson diagonalization with overlap
     ethr =  1.92E-03,  avg # of iterations =  1.0

     negative rho (up, down):  4.446E-02 0.000E+00

     total cpu time spent up to now is       13.5 secs

     total energy              =     -53.85060471 Ry
     estimated scf accuracy    <       0.34155936 Ry

     iteration #  9     ecut=    22.00 Ry     beta= 0.70
     Davidson diagonalization with overlap
     ethr =  1.07E-03,  avg # of iterations =  2.2

     negative rho (up, down):  7.646E-02 0.000E+00

     total cpu time spent up to now is       14.8 secs

     total energy              =     -53.78540701 Ry
     estimated scf accuracy    <       0.12244546 Ry

     iteration # 10     ecut=    22.00 Ry     beta= 0.70
     Davidson diagonalization with overlap
     ethr =  3.83E-04,  avg # of iterations =  6.0

     negative rho (up, down):  1.320E-01 0.000E+00

     total cpu time spent up to now is       16.4 secs

     total energy              =     -53.77067095 Ry
     estimated scf accuracy    <       0.02499512 Ry

     iteration # 11     ecut=    22.00 Ry     beta= 0.70
     Davidson diagonalization with overlap
     ethr =  7.81E-05,  avg # of iterations = 11.5

     negative rho (up, down):  9.744E-02 0.000E+00

     total cpu time spent up to now is       18.7 secs

     total energy              =     -53.76236032 Ry
     estimated scf accuracy    <       0.02341167 Ry

     iteration # 12     ecut=    22.00 Ry     beta= 0.70
     Davidson diagonalization with overlap
     c_bands:  1 eigenvalues not converged
     c_bands:  1 eigenvalues not converged
     ethr =  7.32E-05,  avg # of iterations = 11.0

     negative rho (up, down):  9.986E-02 0.000E+00

     total cpu time spent up to now is       21.7 secs

     total energy              =     -53.77687151 Ry
     estimated scf accuracy    <       0.00325822 Ry

     iteration # 13     ecut=    22.00 Ry     beta= 0.70
     Davidson diagonalization with overlap
     c_bands:  1 eigenvalues not converged
     ethr =  1.02E-05,  avg # of iterations =  7.4

     negative rho (up, down):  1.064E-01 0.000E+00

     total cpu time spent up to now is       23.6 secs

     total energy              =     -53.77544757 Ry
     estimated scf accuracy    <       0.00256550 Ry

     iteration # 14     ecut=    22.00 Ry     beta= 0.70
     Davidson diagonalization with overlap
     ethr =  8.02E-06,  avg # of iterations =  7.7

     negative rho (up, down):  1.078E-01 0.000E+00

     total cpu time spent up to now is       25.5 secs

     total energy              =     -53.77544050 Ry
     estimated scf accuracy    <       0.00046806 Ry

     iteration # 15     ecut=    22.00 Ry     beta= 0.70
     Davidson diagonalization with overlap
     ethr =  1.46E-06,  avg # of iterations =  6.8

     negative rho (up, down):  1.098E-01 0.000E+00

     total cpu time spent up to now is       27.1 secs

     total energy              =     -53.77528953 Ry
     estimated scf accuracy    <       0.00028916 Ry

     iteration # 16     ecut=    22.00 Ry     beta= 0.70
     Davidson diagonalization with overlap
     c_bands:  1 eigenvalues not converged
     ethr =  9.04E-07,  avg # of iterations =  7.8

     negative rho (up, down):  1.111E-01 0.000E+00

     total cpu time spent up to now is       28.9 secs

     total energy              =     -53.77526556 Ry
     estimated scf accuracy    <       0.00006274 Ry

     iteration # 17     ecut=    22.00 Ry     beta= 0.70
     Davidson diagonalization with overlap
     ethr =  1.96E-07,  avg # of iterations =  5.4

     negative rho (up, down):  1.119E-01 0.000E+00

     total cpu time spent up to now is       30.4 secs

     total energy              =     -53.77526300 Ry
     estimated scf accuracy    <       0.00000805 Ry

     iteration # 18     ecut=    22.00 Ry     beta= 0.70
     Davidson diagonalization with overlap
     ethr =  2.51E-08,  avg # of iterations =  5.4

     negative rho (up, down):  1.119E-01 0.000E+00

     total cpu time spent up to now is       31.8 secs

     total energy              =     -53.77526390 Ry
     estimated scf accuracy    <       0.00000013 Ry

     iteration # 19     ecut=    22.00 Ry     beta= 0.70
     Davidson diagonalization with overlap
     ethr =  4.12E-10,  avg # of iterations =  5.1

     negative rho (up, down):  1.119E-01 0.000E+00

     total cpu time spent up to now is       33.5 secs

     total energy              =     -53.77526398 Ry
     estimated scf accuracy    <       0.00000010 Ry

     iteration # 20     ecut=    22.00 Ry     beta= 0.70
     Davidson diagonalization with overlap
     ethr =  2.99E-10,  avg # of iterations =  1.9

     negative rho (up, down):  1.118E-01 0.000E+00

     total cpu time spent up to now is       34.5 secs

     End of self-consistent calculation

          k = 0.0000 0.0000 0.0000 (   943 PWs)   bands (ev):

   -36.2057 -26.2633 -26.2633 -25.4826 -25.4826 -24.5036 -12.7913 -12.0235
   -12.0235  -8.3027  -0.9760  -0.9760  -0.4772   1.0133   3.5467   6.0300
     6.4741   7.6981   9.0866   9.2593

          k = 0.0000 0.0962 0.0000 (   946 PWs)   bands (ev):

   -36.1829 -28.0257 -27.9310 -24.6944 -23.6030 -23.2038 -12.7753 -12.2351
   -12.1366  -8.3829  -1.4630  -0.8840  -0.4032   1.9068   3.3146   6.2406
     6.6725   7.6400   7.9289   8.4761

          k = 0.0000 0.1925 0.0000 (   952 PWs)   bands (ev):

   -36.0909 -29.9069 -29.6630 -24.1968 -21.3831 -20.6948 -13.1569 -12.6651
   -11.8119  -8.2897  -1.7996  -1.5164   0.9686   2.7464   3.1171   5.9824
     6.8829   6.9172   7.3182   8.4896

          k = 0.0000 0.2887 0.0000 (   960 PWs)   bands (ev):

   -35.9375 -31.4562 -31.0411 -23.4890 -19.4807 -18.3023 -13.9176 -12.5005
   -10.8903  -7.8376  -2.6095  -1.5489   1.5035   2.3880   3.2518   4.8057
     6.1490   7.7775   8.0838   8.3993

          k = 0.0000 0.3849 0.0000 (   934 PWs)   bands (ev):

   -35.7154 -32.5889 -31.9821 -22.4779 -18.3584 -17.1239 -13.3788 -11.1817
    -9.4802  -6.7584  -3.4175  -1.2352   0.4711   2.1746   3.1572   4.2300
     6.1383   6.6325   7.4347   9.5990

          k = 0.0000 0.4811 0.0000 (   922 PWs)   bands (ev):

   -35.4553 -33.3053 -32.5638 -21.1929 -18.0006 -17.8685 -11.0756  -9.1878
    -8.0689  -5.5424  -4.1757  -1.3455   0.6566   0.8102   3.3051   3.5747
     4.6294   5.3957   8.7947  11.6222

          k = 0.0000-0.5774 0.0000 (   906 PWs)   bands (ev):

   -35.2374 -33.3195 -32.7847 -20.4433 -18.6746 -17.8473 -10.3267  -7.6869
    -7.4238  -5.6668  -4.5105  -1.3088   0.1170   0.8677   3.3825   3.6295
     3.7966   5.0899   9.0100  13.4973

          k = 0.0833 0.1443 0.0000 (   939 PWs)   bands (ev):

   -36.1154 -29.4704 -29.1718 -24.3354 -21.8594 -21.4389 -12.8292 -12.7070
   -11.8452  -8.2928  -1.6957  -1.2091   0.7258   2.8406   3.2099   6.4511
     6.7600   7.0270   7.3190   8.3133

          k = 0.0833 0.2406 0.0000 (   948 PWs)   bands (ev):

   -35.9986 -31.0072 -30.5099 -23.7847 -19.8736 -19.2064 -13.4895 -12.8448
   -11.0593  -8.0765  -2.1545  -1.6620   2.1562   2.4899   3.1645   5.2677
     5.8646   7.5639   7.9780   9.0385

          k = 0.0833 0.3368 0.0000 (   946 PWs)   bands (ev):

   -35.8123 -32.2816 -31.5819 -22.9700 -18.4705 -17.4559 -13.7061 -12.1311
    -9.8518  -7.3787  -3.1294  -1.3442   0.8000   2.9697   3.0371   4.4163
     5.6199   7.2169   7.9654   8.9302

          k = 0.0833 0.4330 0.0000 (   919 PWs)   bands (ev):

   -35.5378 -33.1614 -32.2645 -21.8126 -17.9538 -17.2639 -11.9245 -10.2766
    -8.2787  -6.0238  -3.9047  -1.2063   0.2397   1.9698   3.0274   3.8428
     4.6678   5.7809   9.0150  10.7239

          k = 0.0833 0.5292 0.0000 (   915 PWs)   bands (ev):

   -35.3198 -33.6026 -32.6326 -20.7808 -18.3755 -17.6485 -10.4531  -8.2578
    -7.2735  -5.5664  -4.7383  -1.2334   0.2950   1.2086   3.0306   3.2743
     3.8010   4.5888   9.8869  12.9739

          k = 0.1667 0.2887 0.0000 (   937 PWs)   bands (ev):

   -35.8512 -32.1783 -31.3565 -23.1265 -18.1310 -17.8937 -13.3025 -12.7249
    -9.7826  -7.4038  -2.8789  -1.2812   1.2722   2.6241   3.8271   4.8352
     5.4507   7.3685   8.6706   9.0513

          k = 0.1667 0.3849 0.0000 (   922 PWs)   bands (ev):

   -35.6201 -33.1485 -32.0141 -22.2682 -17.6947 -17.0530 -12.2552 -11.4651
    -8.1547  -6.5981  -3.7314  -1.1013   0.0696   2.3496   2.9894   3.6304
     4.9558   7.0267   8.8167  10.2224

          k = 0.1667 0.4811 0.0000 (   910 PWs)   bands (ev):

   -35.3353 -33.8099 -32.4317 -21.2997 -17.9753 -17.0767 -10.6738  -9.4269
    -6.6473  -5.7325  -4.3477  -1.1496  -0.0963   1.8401   2.4319   2.7044
     3.5247   6.0287  10.5526  12.2081

          k = 0.1667 0.5774 0.0000 (   914 PWs)   bands (ev):

   -35.3244 -34.1232 -32.6396 -20.7881 -18.2563 -17.2855 -10.0420  -8.0911
    -6.8413  -5.3801  -5.0483  -1.0298   0.4526   1.2556   1.5051   2.5749
     3.0855   5.4790  11.3465  13.8468

          k = 0.2500 0.4330 0.0000 (   905 PWs)   bands (ev):

   -35.3363 -33.8991 -32.3558 -21.5173 -17.7735 -16.8300 -10.7227 -10.2302
    -6.3079  -5.5721  -4.2373  -0.9335  -0.5540   1.9576   2.3239   2.6928
     3.2645   9.1602   9.1847  11.8645

          k = 0.2500 0.5292 0.0000 (   904 PWs)   bands (ev):

   -35.2411 -34.4507 -32.6003 -20.9670 -17.8395 -16.9680  -9.7537  -8.9842
    -5.6313  -5.1893  -4.2184  -1.3200   0.0310   1.1100   1.6741   2.1076
     2.3181   8.2939  11.4548  13.0489

          k = 0.3333 0.5774 0.0000 (   900 PWs)   bands (ev):

   -34.9281 -34.9280 -32.6548 -20.8261 -17.3148 -17.3148  -9.1437  -9.1437
    -4.7804  -4.7804  -4.2696  -1.3623   0.4413   0.4414   1.8721   2.1325
     2.1325  10.9095  11.8218  11.8218

     the Fermi energy is     4.2885 ev

!    total energy              =     -53.77526405 Ry
     estimated scf accuracy    <          4.1E-09 Ry
     smearing contrib. (-TS)   =       0.00074195 Ry
     internal energy E=F+TS    =     -53.77600599 Ry

     The total energy is F=E-TS. E is the sum of the following terms:
     one-electron contribution =   -2224.02821849 Ry
     hartree contribution      =    1123.09345753 Ry
     xc contribution           =     -43.76542665 Ry
     ewald contribution        =    1090.92418161 Ry

     convergence has been achieved in  20 iterations

     negative rho (up, down):  1.118E-01 0.000E+00

     Forces acting on atoms (cartesian axes, Ry/au):

     atom    1 type  1   force =     0.00000000   -0.00000000  -27.59928612
     atom    2 type  1   force =     0.00000000    0.00000000   -2.96274657
     atom    3 type  1   force =     0.00000000    0.00000000  -26.83135551
     atom    4 type  1   force =     0.00000000    0.00000000   24.21846563
     atom    5 type  1   force =     0.00000000    0.00000000  -24.21846154
     atom    6 type  1   force =     0.00000000    0.00000000   26.83134371
     atom    7 type  1   force =     0.00000000    0.00000000    2.96275479
     atom    8 type  1   force =     0.00000000    0.00000000   27.59928562

     Total force =    64.450815     Total SCF correction =     0.000139


     Computing stress (Cartesian axis) and pressure


     negative rho (up, down):  1.118E-01 0.000E+00
          total   stress  (Ry/bohr**3)                   (kbar)     P=     7935.97
   0.00894352   0.00000000   0.00000000         1315.64        0.00        0.00
   0.00000000   0.00894352  -0.00000000            0.00     1315.64       -0.00
   0.00000000  -0.00000000   0.14395584            0.00       -0.00    21176.63


     Writing all to output data dir /run/media/rfa/SATA/Skripsi/DFT/Graphene-copy/tmp/gr-abc-4L.save/ :
     XML data file, charge density, pseudopotentials, collected wavefunctions

     init_run     :      0.88s CPU      0.79s WALL (       1 calls)
     electrons    :     46.23s CPU     33.61s WALL (       1 calls)
     forces       :      0.26s CPU      0.19s WALL (       1 calls)
     stress       :      0.72s CPU      0.49s WALL (       1 calls)

     Called by init_run:
     wfcinit      :      0.68s CPU      0.48s WALL (       1 calls)
     potinit      :      0.01s CPU      0.01s WALL (       1 calls)
     hinit0       :      0.13s CPU      0.22s WALL (       1 calls)

     Called by electrons:
     c_bands      :     41.94s CPU     30.41s WALL (      20 calls)
     sum_band     :      3.71s CPU      2.70s WALL (      20 calls)
     v_of_rho     :      0.09s CPU      0.06s WALL (      21 calls)
     newd         :      0.45s CPU      0.41s WALL (      21 calls)
     mix_rho      :      0.04s CPU      0.02s WALL (      20 calls)

     Called by c_bands:
     init_us_2    :      0.09s CPU      0.08s WALL (     817 calls)
     cegterg      :     39.72s CPU     28.80s WALL (     380 calls)

     Called by *egterg:
     cdiaghg      :      5.85s CPU      4.76s WALL (    2446 calls)
     h_psi        :     16.73s CPU     11.33s WALL (    2465 calls)
     s_psi        :      0.77s CPU      0.75s WALL (    2465 calls)
     g_psi        :      0.05s CPU      0.03s WALL (    2066 calls)

     Called by h_psi:
     h_psi:calbec :     10.69s CPU      6.92s WALL (    2465 calls)
     vloc_psi     :      5.16s CPU      3.56s WALL (    2465 calls)
     add_vuspsi   :      0.82s CPU      0.81s WALL (    2465 calls)

     General routines
     calbec       :     14.28s CPU      9.43s WALL (    3168 calls)
     fft          :      0.17s CPU      0.24s WALL (     256 calls)
     ffts         :      0.00s CPU      0.00s WALL (      20 calls)
     fftw         :      5.40s CPU      3.78s WALL (   52464 calls)

     Parallel routines

     PWSCF        :     48.24s CPU     35.37s WALL


   This run was terminated on:  15:23: 6  16Apr2025            

=------------------------------------------------------------------------------=
   JOB DONE.
=------------------------------------------------------------------------------=
