
     Program PWSCF v.7.4.1 starts on 16Apr2025 at 15:43:53 

     This program is part of the open-source Quantum ESPRESSO suite
     for quantum simulation of materials; please cite
         "P. Giannozzi et al., J. Phys.:Condens. Matter 21 395502 (2009);
         "P. Giannozzi et al., J. Phys.:Condens. Matter 29 465901 (2017);
         "P. Giannozzi et al., J. Chem. Phys. 152 154105 (2020);
          URL http://www.quantum-espresso.org", 
     in publications or presentations arising from this work. More details at
     http://www.quantum-espresso.org/quote

     Parallel version (MPI), running on     7 processors

     MPI processes distributed on     1 nodes
     14395 MiB available memory on the printing compute node when the environment starts

     Waiting for input...
     Reading input from standard input

     Current dimensions of program PWSCF are:
     Max number of different atomic species (ntypx) = 10
     Max number of k-points (npk) =  40000
     Max angular momentum in pseudopotentials (lmaxx) =  4

     R & G space division:  proc/nbgrp/npool/nimage =       7
     Subspace diagonalization in iterative solution of the eigenvalue problem:
     a serial algorithm will be used


     Parallelization info
     --------------------
     sticks:   dense  smooth     PW     G-vecs:    dense   smooth      PW
     Min          62      62     19                 6632     6632    1108
     Max          63      63     21                 6655     6655    1119
     Sum         439     439    139                46531    46531    7785

     Using Slab Decomposition



     bravais-lattice index     =            4
     lattice parameter (alat)  =       4.6561  a.u.
     unit-cell volume          =     532.1899 (a.u.)^3
     number of atoms/cell      =            8
     number of atomic types    =            1
     number of electrons       =        32.00
     number of Kohn-Sham states=           20
     kinetic-energy cutoff     =      75.0000  Ry
     charge density cutoff     =     300.0000  Ry
     scf convergence threshold =      1.0E-08
     mixing beta               =       0.7000
     number of iterations used =            8  plain     mixing
     Exchange-correlation= PBE
                           (   1   4   3   4   0   0   0)

     celldm(1)=   4.656107  celldm(2)=   0.000000  celldm(3)=   6.087896
     celldm(4)=   0.000000  celldm(5)=   0.000000  celldm(6)=   0.000000

     crystal axes: (cart. coord. in units of alat)
               a(1) = (   1.000000   0.000000   0.000000 )  
               a(2) = (  -0.500000   0.866025   0.000000 )  
               a(3) = (   0.000000   0.000000   6.087896 )  

     reciprocal axes: (cart. coord. in units 2 pi/alat)
               b(1) = (  1.000000  0.577350 -0.000000 )  
               b(2) = (  0.000000  1.154701  0.000000 )  
               b(3) = (  0.000000 -0.000000  0.164260 )  


     PseudoPot. # 1 for C  read from file:
     /run/media/rfa/SATA/Skripsi/DFT/Graphene-copy/pseudo/C.pbe-n-rrkjus_psl.0.1.UPF
     MD5 check sum: 96a6a315177d77e6c95bf6fd3870f9e3
     Pseudo is Ultrasoft + core correction, Zval =  4.0
     Generated using &quot;atomic&quot; code by A. Dal Corso  v.6.3MaX
     Using radial grid of 1073 points,  4 beta functions with: 
                l(1) =   0
                l(2) =   0
                l(3) =   1
                l(4) =   1
     Q(r) pseudized with 0 coefficients 


     atomic species   valence    mass     pseudopotential
     C                 4.00    12.01070     C ( 1.00)

      6 Sym. Ops. (no inversion) found



   Cartesian axes

     site n.     atom                  positions (alat units)
         1        C      tau(   1) = (   0.0000000   0.5773503   3.0439478  )
         2        C      tau(   2) = (   0.5000000   0.2886751   3.0439478  )
         3        C      tau(   3) = (   0.0000000   0.0000000   3.2468777  )
         4        C      tau(   4) = (   0.0000000   0.5773503   3.2468777  )
         5        C      tau(   5) = (   0.5000000   0.2886751   3.4498075  )
         6        C      tau(   6) = (   0.0000000   0.0000000   3.4498075  )
         7        C      tau(   7) = (   0.0000000   0.5773503   3.6527374  )
         8        C      tau(   8) = (   0.5000000   0.2886751   3.6527374  )

     number of k points=    19  Marzari-Vanderbilt smearing, width (Ry)=  0.0200
                       cart. coord. in units 2pi/alat
        k(    1) = (   0.0000000   0.0000000   0.0000000), wk =   0.0138889
        k(    2) = (   0.0000000   0.0962250   0.0000000), wk =   0.0833333
        k(    3) = (   0.0000000   0.1924501   0.0000000), wk =   0.0833333
        k(    4) = (   0.0000000   0.2886751   0.0000000), wk =   0.0833333
        k(    5) = (   0.0000000   0.3849002   0.0000000), wk =   0.0833333
        k(    6) = (   0.0000000   0.4811252   0.0000000), wk =   0.0833333
        k(    7) = (   0.0000000  -0.5773503   0.0000000), wk =   0.0416667
        k(    8) = (   0.0833333   0.1443376   0.0000000), wk =   0.0833333
        k(    9) = (   0.0833333   0.2405626   0.0000000), wk =   0.1666667
        k(   10) = (   0.0833333   0.3367877   0.0000000), wk =   0.1666667
        k(   11) = (   0.0833333   0.4330127   0.0000000), wk =   0.1666667
        k(   12) = (   0.0833333   0.5292377   0.0000000), wk =   0.1666667
        k(   13) = (   0.1666667   0.2886751   0.0000000), wk =   0.0833333
        k(   14) = (   0.1666667   0.3849002   0.0000000), wk =   0.1666667
        k(   15) = (   0.1666667   0.4811252   0.0000000), wk =   0.1666667
        k(   16) = (   0.1666667   0.5773503   0.0000000), wk =   0.0833333
        k(   17) = (   0.2500000   0.4330127   0.0000000), wk =   0.0833333
        k(   18) = (   0.2500000   0.5292377   0.0000000), wk =   0.1666667
        k(   19) = (   0.3333333   0.5773503   0.0000000), wk =   0.0277778

     Dense  grid:    46531 G-vectors     FFT dimensions: (  25,  25, 160)

     Estimated max dynamical RAM per process >      16.71 MB

     Estimated total dynamical RAM >     116.95 MB

     Check: negative core charge=   -0.000003

     Initial potential from superposition of free atoms

     starting charge      31.9997, renormalised to      32.0000

     negative rho (up, down):  7.709E-05 0.000E+00
     Starting wfcs are   32 randomized atomic wfcs

     total cpu time spent up to now is        1.9 secs

     per-process dynamical memory:    16.9 Mb

     Self-consistent Calculation

     iteration #  1     ecut=    75.00 Ry     beta= 0.70
     Davidson diagonalization with overlap
     ethr =  1.00E-02,  avg # of iterations =  8.8

     negative rho (up, down):  4.734E-05 0.000E+00

     total cpu time spent up to now is       10.8 secs

     total energy              =     -50.32254902 Ry
     estimated scf accuracy    <      18.12895376 Ry

     iteration #  2     ecut=    75.00 Ry     beta= 0.70
     Davidson diagonalization with overlap
     c_bands:  1 eigenvalues not converged
     c_bands:  2 eigenvalues not converged
     c_bands:  1 eigenvalues not converged
     ethr =  1.00E-02,  avg # of iterations = 17.4

     total cpu time spent up to now is       23.5 secs

     total energy              =     -36.00410035 Ry
     estimated scf accuracy    <      94.53863910 Ry

     iteration #  3     ecut=    75.00 Ry     beta= 0.70
     Davidson diagonalization with overlap
     c_bands:  1 eigenvalues not converged
     c_bands:  1 eigenvalues not converged
     c_bands:  2 eigenvalues not converged
     c_bands:  1 eigenvalues not converged
     ethr =  1.00E-02,  avg # of iterations = 14.1

     total cpu time spent up to now is       34.3 secs

     total energy              =     -57.86276271 Ry
     estimated scf accuracy    <       3.22615846 Ry

     iteration #  4     ecut=    75.00 Ry     beta= 0.70
     Davidson diagonalization with overlap
     ethr =  1.00E-02,  avg # of iterations =  3.9

     total cpu time spent up to now is       37.5 secs

     total energy              =     -58.05847265 Ry
     estimated scf accuracy    <       1.34358149 Ry

     iteration #  5     ecut=    75.00 Ry     beta= 0.70
     Davidson diagonalization with overlap
     ethr =  4.20E-03,  avg # of iterations =  3.9

     total cpu time spent up to now is       41.0 secs

     total energy              =     -58.09263430 Ry
     estimated scf accuracy    <       1.10919035 Ry

     iteration #  6     ecut=    75.00 Ry     beta= 0.70
     Davidson diagonalization with overlap
     ethr =  3.47E-03,  avg # of iterations =  1.5

     total cpu time spent up to now is       43.3 secs

     total energy              =     -58.00204677 Ry
     estimated scf accuracy    <       1.07118693 Ry

     iteration #  7     ecut=    75.00 Ry     beta= 0.70
     Davidson diagonalization with overlap
     ethr =  3.35E-03,  avg # of iterations =  1.1

     total cpu time spent up to now is       46.1 secs

     total energy              =     -58.01521020 Ry
     estimated scf accuracy    <       0.42446321 Ry

     iteration #  8     ecut=    75.00 Ry     beta= 0.70
     Davidson diagonalization with overlap
     ethr =  1.33E-03,  avg # of iterations =  4.9

     total cpu time spent up to now is       50.2 secs

     total energy              =     -58.12551489 Ry
     estimated scf accuracy    <       0.30411930 Ry

     iteration #  9     ecut=    75.00 Ry     beta= 0.70
     Davidson diagonalization with overlap
     ethr =  9.50E-04,  avg # of iterations =  2.9

     total cpu time spent up to now is       53.9 secs

     total energy              =     -58.01210071 Ry
     estimated scf accuracy    <       0.33754258 Ry

     iteration # 10     ecut=    75.00 Ry     beta= 0.70
     Davidson diagonalization with overlap
     ethr =  9.50E-04,  avg # of iterations =  4.0

     total cpu time spent up to now is       57.7 secs

     total energy              =     -58.01848027 Ry
     estimated scf accuracy    <       0.11224910 Ry

     iteration # 11     ecut=    75.00 Ry     beta= 0.70
     Davidson diagonalization with overlap
     ethr =  3.51E-04,  avg # of iterations = 10.4

     negative rho (up, down):  3.103E-07 0.000E+00

     total cpu time spent up to now is       65.0 secs

     total energy              =     -58.07718648 Ry
     estimated scf accuracy    <       0.07711244 Ry

     iteration # 12     ecut=    75.00 Ry     beta= 0.70
     Davidson diagonalization with overlap
     ethr =  2.41E-04,  avg # of iterations = 10.3

     total cpu time spent up to now is       71.2 secs

     total energy              =     -58.05905603 Ry
     estimated scf accuracy    <       0.07705492 Ry

     iteration # 13     ecut=    75.00 Ry     beta= 0.70
     Davidson diagonalization with overlap
     ethr =  2.41E-04,  avg # of iterations =  1.7

     negative rho (up, down):  2.600E-06 0.000E+00

     total cpu time spent up to now is       73.4 secs

     total energy              =     -58.05789858 Ry
     estimated scf accuracy    <       0.01843011 Ry

     iteration # 14     ecut=    75.00 Ry     beta= 0.70
     Davidson diagonalization with overlap
     c_bands:  1 eigenvalues not converged
     c_bands:  2 eigenvalues not converged
     c_bands:  1 eigenvalues not converged
     c_bands:  1 eigenvalues not converged
     c_bands:  1 eigenvalues not converged
     ethr =  5.76E-05,  avg # of iterations = 12.3

     negative rho (up, down):  1.298E-06 0.000E+00

     total cpu time spent up to now is       80.4 secs

     total energy              =     -58.06425827 Ry
     estimated scf accuracy    <       0.00343371 Ry

     iteration # 15     ecut=    75.00 Ry     beta= 0.70
     Davidson diagonalization with overlap
     c_bands:  1 eigenvalues not converged
     c_bands:  1 eigenvalues not converged
     ethr =  1.07E-05,  avg # of iterations = 11.3

     negative rho (up, down):  1.188E-04 0.000E+00

     total cpu time spent up to now is       88.4 secs

     total energy              =     -58.06608181 Ry
     estimated scf accuracy    <       0.00400045 Ry

     iteration # 16     ecut=    75.00 Ry     beta= 0.70
     Davidson diagonalization with overlap
     ethr =  1.07E-05,  avg # of iterations =  4.2

     negative rho (up, down):  3.479E-03 0.000E+00

     total cpu time spent up to now is       91.6 secs

     total energy              =     -58.06551692 Ry
     estimated scf accuracy    <       0.00225272 Ry

     iteration # 17     ecut=    75.00 Ry     beta= 0.70
     Davidson diagonalization with overlap
     c_bands:  1 eigenvalues not converged
     ethr =  7.04E-06,  avg # of iterations = 10.8

     negative rho (up, down):  2.289E-03 0.000E+00

     total cpu time spent up to now is       97.9 secs

     total energy              =     -58.06592468 Ry
     estimated scf accuracy    <       0.00070941 Ry

     iteration # 18     ecut=    75.00 Ry     beta= 0.70
     Davidson diagonalization with overlap
     c_bands:  1 eigenvalues not converged
     c_bands:  1 eigenvalues not converged
     ethr =  2.22E-06,  avg # of iterations = 11.3

     negative rho (up, down):  4.265E-04 0.000E+00

     total cpu time spent up to now is      105.4 secs

     total energy              =     -58.06625489 Ry
     estimated scf accuracy    <       0.00048699 Ry

     iteration # 19     ecut=    75.00 Ry     beta= 0.70
     Davidson diagonalization with overlap
     c_bands:  1 eigenvalues not converged
     c_bands:  1 eigenvalues not converged
     c_bands:  1 eigenvalues not converged
     ethr =  1.52E-06,  avg # of iterations = 13.3

     negative rho (up, down):  1.365E-04 0.000E+00

     total cpu time spent up to now is      111.8 secs

     total energy              =     -58.06627041 Ry
     estimated scf accuracy    <       0.00014664 Ry

     iteration # 20     ecut=    75.00 Ry     beta= 0.70
     Davidson diagonalization with overlap
     ethr =  4.58E-07,  avg # of iterations =  4.3

     negative rho (up, down):  1.378E-04 0.000E+00

     total cpu time spent up to now is      117.6 secs

     total energy              =     -58.06632055 Ry
     estimated scf accuracy    <       0.00001507 Ry

     iteration # 21     ecut=    75.00 Ry     beta= 0.70
     Davidson diagonalization with overlap
     ethr =  4.71E-08,  avg # of iterations = 11.9

     negative rho (up, down):  1.444E-04 0.000E+00

     total cpu time spent up to now is      136.9 secs

     total energy              =     -58.06635965 Ry
     estimated scf accuracy    <       0.00001091 Ry

     iteration # 22     ecut=    75.00 Ry     beta= 0.70
     Davidson diagonalization with overlap
     ethr =  3.41E-08,  avg # of iterations =  2.0

     negative rho (up, down):  1.552E-04 0.000E+00

     total cpu time spent up to now is      141.2 secs

     total energy              =     -58.06635651 Ry
     estimated scf accuracy    <       0.00000848 Ry

     iteration # 23     ecut=    75.00 Ry     beta= 0.70
     Davidson diagonalization with overlap
     ethr =  2.65E-08,  avg # of iterations =  2.5

     negative rho (up, down):  1.518E-04 0.000E+00

     total cpu time spent up to now is      145.0 secs

     total energy              =     -58.06635676 Ry
     estimated scf accuracy    <       0.00000173 Ry

     iteration # 24     ecut=    75.00 Ry     beta= 0.70
     Davidson diagonalization with overlap
     ethr =  5.40E-09,  avg # of iterations =  7.8

     negative rho (up, down):  1.556E-04 0.000E+00

     total cpu time spent up to now is      154.2 secs

     total energy              =     -58.06635853 Ry
     estimated scf accuracy    <       0.00000135 Ry

     iteration # 25     ecut=    75.00 Ry     beta= 0.70
     Davidson diagonalization with overlap
     ethr =  4.23E-09,  avg # of iterations =  1.9

     negative rho (up, down):  1.580E-04 0.000E+00

     total cpu time spent up to now is      157.1 secs

     total energy              =     -58.06635865 Ry
     estimated scf accuracy    <       0.00000011 Ry

     iteration # 26     ecut=    75.00 Ry     beta= 0.70
     Davidson diagonalization with overlap
     ethr =  3.45E-10,  avg # of iterations = 10.7

     negative rho (up, down):  1.586E-04 0.000E+00

     total cpu time spent up to now is      167.6 secs

     End of self-consistent calculation

          k = 0.0000 0.0000 0.0000 (  5827 PWs)   bands (ev):

   -34.8480 -24.5036 -24.0038 -24.0038 -23.6572 -23.6572 -14.4768 -10.3778
   -10.3778  -8.6891  -1.8251  -0.2766   0.3055   0.3055   4.9687   7.3824
     7.9508   8.1562   8.4838   8.4838

          k = 0.0000 0.0962 0.0000 (  5879 PWs)   bands (ev):

   -34.8240 -26.1396 -25.8639 -24.2620 -21.5644 -21.3616 -14.3419 -10.5796
   -10.5620  -8.7894  -2.4904  -0.5165   0.8762   1.5864   4.8533   7.2793
     7.9676   8.1332   8.1576   8.3656

          k = 0.0000 0.1925 0.0000 (  5881 PWs)   bands (ev):

   -34.7495 -28.0635 -27.5746 -23.8288 -19.2520 -18.7318 -14.0607 -11.3110
   -10.9219  -8.5817  -2.8100  -1.1615   2.2854   2.8472   4.3777   6.6912
     7.3408   8.0169   8.6753   8.9614

          k = 0.0000 0.2887 0.0000 (  5891 PWs)   bands (ev):

   -34.6192 -29.6587 -28.9344 -23.1198 -17.2903 -16.2973 -14.2595 -11.6446
   -10.7815  -7.8551  -2.5106  -1.9507   2.0875   3.4636   3.8564   5.9564
     6.9930   7.6350   9.3030   9.9244

          k = 0.0000 0.3849 0.0000 (  5869 PWs)   bands (ev):

   -34.4334 -30.9001 -29.9187 -22.1675 -16.2505 -16.2402 -13.3972 -10.8414
    -9.5544  -6.7685  -3.0213  -1.5903   0.8342   2.8199   3.0027   5.0514
     6.1620   7.4880   8.2660  11.2940

          k = 0.0000 0.4811 0.0000 (  5815 PWs)   bands (ev):

   -34.2241 -31.7452 -30.5138 -21.0379 -17.7165 -15.9645 -11.7347 -10.0901
    -7.6525  -5.3705  -3.7903  -1.0928   0.5474   1.3003   1.7389   4.0871
     4.6859   6.0816   9.5550  13.2133

          k = 0.0000-0.5774 0.0000 (  5814 PWs)   bands (ev):

   -34.1146 -32.0670 -30.7129 -20.1959 -18.7059 -15.9343 -10.8522 -10.0701
    -6.5970  -4.4130  -4.1981  -0.4913  -0.4520   0.4132   2.0759   3.1462
     3.9449   5.7295   9.8770  14.4379

          k = 0.0833 0.1443 0.0000 (  5871 PWs)   bands (ev):

   -34.7746 -27.6040 -27.1189 -23.9846 -19.8121 -19.4813 -14.1150 -11.3245
   -10.5587  -8.7488  -2.8183  -0.9616   1.9364   2.6647   4.5356   6.9863
     7.1758   8.0621   8.5052   8.7749

          k = 0.0833 0.2406 0.0000 (  5868 PWs)   bands (ev):

   -34.6714 -29.1777 -28.4484 -23.4198 -17.7851 -17.1915 -13.9363 -12.2451
   -10.3819  -8.3124  -2.6873  -1.7168   2.7032   3.5100   3.8302   6.2342
     6.5482   8.0086   9.1289   9.5733

          k = 0.0833 0.3368 0.0000 (  5851 PWs)   bands (ev):

   -34.5096 -30.5151 -29.5280 -22.5957 -16.4008 -15.8311 -13.9534 -11.8809
    -9.5443  -7.4283  -2.6951  -1.9758   1.4189   3.1356   3.8933   5.3943
     6.1823   7.6696   8.3113  10.6314

          k = 0.0833 0.4330 0.0000 (  5827 PWs)   bands (ev):

   -34.2983 -31.5295 -30.2714 -21.5651 -16.9918 -15.8691 -12.5056 -10.6120
    -8.1091  -6.0573  -3.5375  -1.2378   0.3814   2.1236   2.8308   4.4119
     4.7446   6.3709   9.4831  12.2078

          k = 0.0833 0.5292 0.0000 (  5816 PWs)   bands (ev):

   -34.1074 -32.1259 -30.6484 -20.4976 -18.2772 -15.8529 -11.2084 -10.0679
    -6.6633  -4.5580  -4.1966  -0.8218   0.0826   0.7578   2.3143   3.1697
     3.8370   5.2460  10.5062  14.0104

          k = 0.1667 0.2887 0.0000 (  5853 PWs)   bands (ev):

   -34.5342 -30.3972 -29.3426 -22.7580 -16.2091 -16.0957 -13.6966 -12.7191
    -9.1289  -7.8967  -2.4907  -2.2637   2.2214   2.4795   4.8767   5.2421
     6.2400   7.1783   8.4202  10.4541

          k = 0.1667 0.3849 0.0000 (  5823 PWs)   bands (ev):

   -34.3338 -31.4543 -30.0688 -21.8796 -16.5110 -15.5747 -13.0723 -11.4422
    -7.6502  -6.8486  -3.2902  -1.5454   0.8252   1.8916   3.6727   4.2981
     5.8032   6.5796   8.4641  11.6960

          k = 0.1667 0.4811 0.0000 (  5806 PWs)   bands (ev):

   -34.0924 -32.2323 -30.5309 -20.9073 -17.5313 -15.7238 -11.8380 -10.2953
    -6.6439  -4.7213  -4.0596  -0.8117  -0.0877   1.0465   2.5908   3.1870
     4.3477   5.2342  10.5887  12.9481

          k = 0.1667 0.5774 0.0000 (  5806 PWs)   bands (ev):

   -33.9508 -32.5558 -30.6886 -20.3236 -18.1592 -15.8304 -11.1126 -10.1403
    -5.7694  -4.7421  -3.4129  -0.5116  -0.1018   0.4255   1.4294   3.0831
     3.9133   4.4745  11.7211  13.4190

          k = 0.2500 0.4330 0.0000 (  5808 PWs)   bands (ev):

   -34.0847 -32.2812 -30.4764 -21.0697 -17.1268 -15.7057 -12.1419 -10.4917
    -6.4777  -5.0053  -3.7465  -0.9574  -0.0807   0.9947   2.3044   3.2756
     4.4544   6.6075   9.2984  12.9894

          k = 0.2500 0.5292 0.0000 (  5811 PWs)   bands (ev):

   -33.7987 -32.8725 -30.6933 -20.4390 -17.5136 -16.1261 -11.1902 -10.2181
    -5.4170  -4.4014  -2.8247  -0.7952  -0.4508   0.5515   1.2876   2.3524
     2.8287   6.7329  10.8900  12.9173

          k = 0.3333 0.5774 0.0000 (  5808 PWs)   bands (ev):

   -33.3969 -33.3969 -30.7487 -20.3060 -16.8911 -16.8911 -10.5698 -10.5697
    -4.5696  -4.5696  -2.2154  -1.2230   0.4167   0.6291   0.6291   1.6647
     1.6647   8.0571  11.2678  11.2678

     the Fermi energy is     4.7602 ev

!    total energy              =     -58.06635886 Ry
     estimated scf accuracy    <          9.1E-09 Ry
     smearing contrib. (-TS)   =       0.00114110 Ry
     internal energy E=F+TS    =     -58.06749996 Ry

     The total energy is F=E-TS. E is the sum of the following terms:
     one-electron contribution =   -2233.49403951 Ry
     hartree contribution      =    1128.66370147 Ry
     xc contribution           =     -44.16134352 Ry
     ewald contribution        =    1090.92418159 Ry

     convergence has been achieved in  26 iterations

     negative rho (up, down):  1.586E-04 0.000E+00

     Forces acting on atoms (cartesian axes, Ry/au):

     atom    1 type  1   force =     0.00000000    0.00000000  -24.05650827
     atom    2 type  1   force =     0.00000000    0.00000000   -2.42978204
     atom    3 type  1   force =    -0.00000000   -0.00000000  -23.40258181
     atom    4 type  1   force =     0.00000000   -0.00000000   21.28770378
     atom    5 type  1   force =     0.00000000    0.00000000  -21.28768091
     atom    6 type  1   force =     0.00000000    0.00000000   23.40255274
     atom    7 type  1   force =     0.00000000    0.00000000    2.42979172
     atom    8 type  1   force =     0.00000000    0.00000000   24.05650480

     Total force =    56.311018     Total SCF correction =     0.000114


     Computing stress (Cartesian axis) and pressure


     negative rho (up, down):  1.586E-04 0.000E+00
          total   stress  (Ry/bohr**3)                   (kbar)     P=     9922.28
   0.02877209   0.00000000   0.00000000         4232.52        0.00        0.00
   0.00000000   0.02877209  -0.00000000            0.00     4232.52       -0.00
   0.00000000   0.00000000   0.14480667            0.00        0.00    21301.80


     Writing all to output data dir /run/media/rfa/SATA/Skripsi/DFT/Graphene-copy/tmp/gr-abc-4L.save/ :
     XML data file, charge density, pseudopotentials, collected wavefunctions

     init_run     :      1.81s CPU      1.76s WALL (       1 calls)
     electrons    :    211.77s CPU    165.70s WALL (       1 calls)
     forces       :      1.04s CPU      0.82s WALL (       1 calls)
     stress       :      3.05s CPU      2.25s WALL (       1 calls)

     Called by init_run:
     wfcinit      :      1.39s CPU      1.16s WALL (       1 calls)
     potinit      :      0.02s CPU      0.03s WALL (       1 calls)
     hinit0       :      0.24s CPU      0.40s WALL (       1 calls)

     Called by electrons:
     c_bands      :    195.62s CPU    151.72s WALL (      26 calls)
     sum_band     :     14.20s CPU     11.80s WALL (      26 calls)
     v_of_rho     :      0.38s CPU      0.46s WALL (      27 calls)
     newd         :      1.34s CPU      1.48s WALL (      27 calls)
     mix_rho      :      0.26s CPU      0.24s WALL (      26 calls)

     Called by c_bands:
     init_us_2    :      1.75s CPU      1.13s WALL (    1045 calls)
     cegterg      :    190.12s CPU    147.93s WALL (     495 calls)

     Called by *egterg:
     cdiaghg      :     12.28s CPU     10.35s WALL (    4089 calls)
     h_psi        :     91.26s CPU     76.05s WALL (    4108 calls)
     s_psi        :      5.34s CPU      4.21s WALL (    4108 calls)
     g_psi        :      0.48s CPU      0.24s WALL (    3594 calls)

     Called by h_psi:
     h_psi:calbec :     47.79s CPU     38.48s WALL (    4108 calls)
     vloc_psi     :     36.25s CPU     31.51s WALL (    4108 calls)
     add_vuspsi   :      6.70s CPU      5.67s WALL (    4108 calls)

     General routines
     calbec       :     58.19s CPU     47.09s WALL (    4925 calls)
     fft          :      0.43s CPU      0.62s WALL (     322 calls)
     ffts         :      0.04s CPU      0.04s WALL (      26 calls)
     fftw         :     37.26s CPU     32.54s WALL (   87798 calls)

     Parallel routines

     PWSCF        :   3m37.84s CPU   2m51.25s WALL


   This run was terminated on:  15:46:44  16Apr2025            

=------------------------------------------------------------------------------=
   JOB DONE.
=------------------------------------------------------------------------------=
