
     Program PWSCF v.7.4.1 starts on 16Apr2025 at 15:24:30 

     This program is part of the open-source Quantum ESPRESSO suite
     for quantum simulation of materials; please cite
         "P. Giannozzi et al., J. Phys.:Condens. Matter 21 395502 (2009);
         "P. Giannozzi et al., J. Phys.:Condens. Matter 29 465901 (2017);
         "P. Giannozzi et al., J. Chem. Phys. 152 154105 (2020);
          URL http://www.quantum-espresso.org", 
     in publications or presentations arising from this work. More details at
     http://www.quantum-espresso.org/quote

     Parallel version (MPI), running on     7 processors

     MPI processes distributed on     1 nodes
     14484 MiB available memory on the printing compute node when the environment starts

     Waiting for input...
     Reading input from standard input

     Current dimensions of program PWSCF are:
     Max number of different atomic species (ntypx) = 10
     Max number of k-points (npk) =  40000
     Max angular momentum in pseudopotentials (lmaxx) =  4

     R & G space division:  proc/nbgrp/npool/nimage =       7
     Subspace diagonalization in iterative solution of the eigenvalue problem:
     a serial algorithm will be used


     Parallelization info
     --------------------
     sticks:   dense  smooth     PW     G-vecs:    dense   smooth      PW
     Min          26      26      8                 1676     1676     330
     Max          27      27     10                 1681     1681     342
     Sum         187     187     61                11745    11745    2349

     Using Slab Decomposition



     bravais-lattice index     =            4
     lattice parameter (alat)  =       4.6561  a.u.
     unit-cell volume          =     532.1899 (a.u.)^3
     number of atoms/cell      =            8
     number of atomic types    =            1
     number of electrons       =        32.00
     number of Kohn-Sham states=           20
     kinetic-energy cutoff     =      30.0000  Ry
     charge density cutoff     =     120.0000  Ry
     scf convergence threshold =      1.0E-08
     mixing beta               =       0.7000
     number of iterations used =            8  plain     mixing
     Exchange-correlation= PBE
                           (   1   4   3   4   0   0   0)

     celldm(1)=   4.656107  celldm(2)=   0.000000  celldm(3)=   6.087896
     celldm(4)=   0.000000  celldm(5)=   0.000000  celldm(6)=   0.000000

     crystal axes: (cart. coord. in units of alat)
               a(1) = (   1.000000   0.000000   0.000000 )  
               a(2) = (  -0.500000   0.866025   0.000000 )  
               a(3) = (   0.000000   0.000000   6.087896 )  

     reciprocal axes: (cart. coord. in units 2 pi/alat)
               b(1) = (  1.000000  0.577350 -0.000000 )  
               b(2) = (  0.000000  1.154701  0.000000 )  
               b(3) = (  0.000000 -0.000000  0.164260 )  


     PseudoPot. # 1 for C  read from file:
     /run/media/rfa/SATA/Skripsi/DFT/Graphene-copy/pseudo/C.pbe-n-rrkjus_psl.0.1.UPF
     MD5 check sum: 96a6a315177d77e6c95bf6fd3870f9e3
     Pseudo is Ultrasoft + core correction, Zval =  4.0
     Generated using &quot;atomic&quot; code by A. Dal Corso  v.6.3MaX
     Using radial grid of 1073 points,  4 beta functions with: 
                l(1) =   0
                l(2) =   0
                l(3) =   1
                l(4) =   1
     Q(r) pseudized with 0 coefficients 


     atomic species   valence    mass     pseudopotential
     C                 4.00    12.01070     C ( 1.00)

      6 Sym. Ops. (no inversion) found



   Cartesian axes

     site n.     atom                  positions (alat units)
         1        C      tau(   1) = (   0.0000000   0.5773503   3.0439478  )
         2        C      tau(   2) = (   0.5000000   0.2886751   3.0439478  )
         3        C      tau(   3) = (   0.0000000   0.0000000   3.2468777  )
         4        C      tau(   4) = (   0.0000000   0.5773503   3.2468777  )
         5        C      tau(   5) = (   0.5000000   0.2886751   3.4498075  )
         6        C      tau(   6) = (   0.0000000   0.0000000   3.4498075  )
         7        C      tau(   7) = (   0.0000000   0.5773503   3.6527374  )
         8        C      tau(   8) = (   0.5000000   0.2886751   3.6527374  )

     number of k points=    19  Marzari-Vanderbilt smearing, width (Ry)=  0.0200
                       cart. coord. in units 2pi/alat
        k(    1) = (   0.0000000   0.0000000   0.0000000), wk =   0.0138889
        k(    2) = (   0.0000000   0.0962250   0.0000000), wk =   0.0833333
        k(    3) = (   0.0000000   0.1924501   0.0000000), wk =   0.0833333
        k(    4) = (   0.0000000   0.2886751   0.0000000), wk =   0.0833333
        k(    5) = (   0.0000000   0.3849002   0.0000000), wk =   0.0833333
        k(    6) = (   0.0000000   0.4811252   0.0000000), wk =   0.0833333
        k(    7) = (   0.0000000  -0.5773503   0.0000000), wk =   0.0416667
        k(    8) = (   0.0833333   0.1443376   0.0000000), wk =   0.0833333
        k(    9) = (   0.0833333   0.2405626   0.0000000), wk =   0.1666667
        k(   10) = (   0.0833333   0.3367877   0.0000000), wk =   0.1666667
        k(   11) = (   0.0833333   0.4330127   0.0000000), wk =   0.1666667
        k(   12) = (   0.0833333   0.5292377   0.0000000), wk =   0.1666667
        k(   13) = (   0.1666667   0.2886751   0.0000000), wk =   0.0833333
        k(   14) = (   0.1666667   0.3849002   0.0000000), wk =   0.1666667
        k(   15) = (   0.1666667   0.4811252   0.0000000), wk =   0.1666667
        k(   16) = (   0.1666667   0.5773503   0.0000000), wk =   0.0833333
        k(   17) = (   0.2500000   0.4330127   0.0000000), wk =   0.0833333
        k(   18) = (   0.2500000   0.5292377   0.0000000), wk =   0.1666667
        k(   19) = (   0.3333333   0.5773503   0.0000000), wk =   0.0277778

     Dense  grid:    11745 G-vectors     FFT dimensions: (  18,  18, 100)

     Estimated max dynamical RAM per process >       4.46 MB

     Estimated total dynamical RAM >      31.24 MB

     Check: negative core charge=   -0.000020

     Initial potential from superposition of free atoms

     starting charge      31.9997, renormalised to      32.0000

     negative rho (up, down):  3.501E-03 0.000E+00
     Starting wfcs are   32 randomized atomic wfcs

     total cpu time spent up to now is        0.6 secs

     per-process dynamical memory:     9.8 Mb

     Self-consistent Calculation

     iteration #  1     ecut=    30.00 Ry     beta= 0.70
     Davidson diagonalization with overlap
     ethr =  1.00E-02,  avg # of iterations =  5.1

     negative rho (up, down):  5.664E-02 0.000E+00

     total cpu time spent up to now is        1.2 secs

     total energy              =     -50.22279081 Ry
     estimated scf accuracy    <      16.48147079 Ry

     iteration #  2     ecut=    30.00 Ry     beta= 0.70
     Davidson diagonalization with overlap
     ethr =  1.00E-02,  avg # of iterations = 15.8

     total cpu time spent up to now is        8.0 secs

     total energy              =     -25.79971666 Ry
     estimated scf accuracy    <     165.05091454 Ry

     iteration #  3     ecut=    30.00 Ry     beta= 0.70
     Davidson diagonalization with overlap
     ethr =  1.00E-02,  avg # of iterations = 11.7

     total cpu time spent up to now is       12.6 secs

     total energy              =     -57.37718683 Ry
     estimated scf accuracy    <       3.09745451 Ry

     iteration #  4     ecut=    30.00 Ry     beta= 0.70
     Davidson diagonalization with overlap
     ethr =  9.68E-03,  avg # of iterations =  2.6

     negative rho (up, down):  1.182E-06 0.000E+00

     total cpu time spent up to now is       15.2 secs

     total energy              =     -57.47514631 Ry
     estimated scf accuracy    <       1.46975984 Ry

     iteration #  5     ecut=    30.00 Ry     beta= 0.70
     Davidson diagonalization with overlap
     ethr =  4.59E-03,  avg # of iterations =  1.8

     negative rho (up, down):  7.763E-06 0.000E+00

     total cpu time spent up to now is       16.8 secs

     total energy              =     -57.44980579 Ry
     estimated scf accuracy    <       1.53188462 Ry

     iteration #  6     ecut=    30.00 Ry     beta= 0.70
     Davidson diagonalization with overlap
     ethr =  4.59E-03,  avg # of iterations =  1.0

     negative rho (up, down):  3.644E-05 0.000E+00

     total cpu time spent up to now is       18.3 secs

     total energy              =     -57.37637267 Ry
     estimated scf accuracy    <       0.90650079 Ry

     iteration #  7     ecut=    30.00 Ry     beta= 0.70
     Davidson diagonalization with overlap
     ethr =  2.83E-03,  avg # of iterations =  1.1

     negative rho (up, down):  7.786E-05 0.000E+00

     total cpu time spent up to now is       19.6 secs

     total energy              =     -57.26067371 Ry
     estimated scf accuracy    <       0.64658317 Ry

     iteration #  8     ecut=    30.00 Ry     beta= 0.70
     Davidson diagonalization with overlap
     ethr =  2.02E-03,  avg # of iterations =  1.1

     negative rho (up, down):  8.858E-05 0.000E+00

     total cpu time spent up to now is       21.1 secs

     total energy              =     -57.25244409 Ry
     estimated scf accuracy    <       0.45458703 Ry

     iteration #  9     ecut=    30.00 Ry     beta= 0.70
     Davidson diagonalization with overlap
     ethr =  1.42E-03,  avg # of iterations =  1.1

     negative rho (up, down):  7.557E-05 0.000E+00

     total cpu time spent up to now is       22.5 secs

     total energy              =     -57.29516683 Ry
     estimated scf accuracy    <       0.41317344 Ry

     iteration # 10     ecut=    30.00 Ry     beta= 0.70
     Davidson diagonalization with overlap
     ethr =  1.29E-03,  avg # of iterations =  1.0

     negative rho (up, down):  2.546E-03 0.000E+00

     total cpu time spent up to now is       24.0 secs

     total energy              =     -57.00044675 Ry
     estimated scf accuracy    <       0.45483203 Ry

     iteration # 11     ecut=    30.00 Ry     beta= 0.70
     Davidson diagonalization with overlap
     ethr =  1.29E-03,  avg # of iterations =  4.3

     negative rho (up, down):  3.717E-02 0.000E+00

     total cpu time spent up to now is       25.8 secs

     total energy              =     -56.99034148 Ry
     estimated scf accuracy    <       0.05504638 Ry

     iteration # 12     ecut=    30.00 Ry     beta= 0.70
     Davidson diagonalization with overlap
     c_bands:  1 eigenvalues not converged
     c_bands:  1 eigenvalues not converged
     ethr =  1.72E-04,  avg # of iterations = 15.1

     negative rho (up, down):  5.562E-02 0.000E+00

     total cpu time spent up to now is       31.0 secs

     total energy              =     -57.02946291 Ry
     estimated scf accuracy    <       0.03483797 Ry

     iteration # 13     ecut=    30.00 Ry     beta= 0.70
     Davidson diagonalization with overlap
     c_bands:  1 eigenvalues not converged
     ethr =  1.09E-04,  avg # of iterations =  9.2

     negative rho (up, down):  2.124E-02 0.000E+00

     total cpu time spent up to now is       34.1 secs

     total energy              =     -56.95208413 Ry
     estimated scf accuracy    <       0.31659177 Ry

     iteration # 14     ecut=    30.00 Ry     beta= 0.70
     Davidson diagonalization with overlap
     c_bands:  1 eigenvalues not converged
     c_bands:  2 eigenvalues not converged
     c_bands:  1 eigenvalues not converged
     c_bands:  1 eigenvalues not converged
     ethr =  1.09E-04,  avg # of iterations = 12.8

     negative rho (up, down):  1.121E-02 0.000E+00

     total cpu time spent up to now is       37.9 secs

     total energy              =     -57.02168746 Ry
     estimated scf accuracy    <       0.02722910 Ry

     iteration # 15     ecut=    30.00 Ry     beta= 0.70
     Davidson diagonalization with overlap
     c_bands:  1 eigenvalues not converged
     c_bands:  1 eigenvalues not converged
     ethr =  8.51E-05,  avg # of iterations = 12.2

     negative rho (up, down):  4.702E-03 0.000E+00

     total cpu time spent up to now is       41.4 secs

     total energy              =     -57.02744144 Ry
     estimated scf accuracy    <       0.02329521 Ry

     iteration # 16     ecut=    30.00 Ry     beta= 0.70
     Davidson diagonalization with overlap
     c_bands:  1 eigenvalues not converged
     ethr =  7.28E-05,  avg # of iterations = 11.6

     negative rho (up, down):  7.731E-03 0.000E+00

     total cpu time spent up to now is       44.7 secs

     total energy              =     -57.03115766 Ry
     estimated scf accuracy    <       0.04545260 Ry

     iteration # 17     ecut=    30.00 Ry     beta= 0.70
     Davidson diagonalization with overlap
     ethr =  7.28E-05,  avg # of iterations =  1.5

     negative rho (up, down):  4.775E-03 0.000E+00

     total cpu time spent up to now is       46.8 secs

     total energy              =     -57.04178236 Ry
     estimated scf accuracy    <       0.04191659 Ry

     iteration # 18     ecut=    30.00 Ry     beta= 0.70
     Davidson diagonalization with overlap
     ethr =  7.28E-05,  avg # of iterations =  1.2

     negative rho (up, down):  2.861E-02 0.000E+00

     total cpu time spent up to now is       48.1 secs

     total energy              =     -56.99918736 Ry
     estimated scf accuracy    <       0.05903449 Ry

     iteration # 19     ecut=    30.00 Ry     beta= 0.70
     Davidson diagonalization with overlap
     ethr =  7.28E-05,  avg # of iterations = 10.7

     negative rho (up, down):  1.986E-02 0.000E+00

     total cpu time spent up to now is       51.0 secs

     total energy              =     -57.01091386 Ry
     estimated scf accuracy    <       0.00928084 Ry

     iteration # 20     ecut=    30.00 Ry     beta= 0.70
     Davidson diagonalization with overlap
     c_bands:  1 eigenvalues not converged
     ethr =  2.90E-05,  avg # of iterations =  9.3

     negative rho (up, down):  2.309E-02 0.000E+00

     total cpu time spent up to now is       54.6 secs

     total energy              =     -57.01146460 Ry
     estimated scf accuracy    <       0.00334004 Ry

     iteration # 21     ecut=    30.00 Ry     beta= 0.70
     Davidson diagonalization with overlap
     ethr =  1.04E-05,  avg # of iterations =  5.5

     negative rho (up, down):  2.431E-02 0.000E+00

     total cpu time spent up to now is       57.0 secs

     total energy              =     -57.01133183 Ry
     estimated scf accuracy    <       0.00213624 Ry

     iteration # 22     ecut=    30.00 Ry     beta= 0.70
     Davidson diagonalization with overlap
     ethr =  6.68E-06,  avg # of iterations =  3.4

     negative rho (up, down):  3.503E-02 0.000E+00

     total cpu time spent up to now is       59.3 secs

     total energy              =     -57.00977406 Ry
     estimated scf accuracy    <       0.00186968 Ry

     iteration # 23     ecut=    30.00 Ry     beta= 0.70
     Davidson diagonalization with overlap
     c_bands:  1 eigenvalues not converged
     c_bands:  1 eigenvalues not converged
     c_bands:  2 eigenvalues not converged
     c_bands:  1 eigenvalues not converged
     ethr =  5.84E-06,  avg # of iterations = 15.1

     negative rho (up, down):  3.457E-02 0.000E+00

     total cpu time spent up to now is       62.6 secs

     total energy              =     -57.01005740 Ry
     estimated scf accuracy    <       0.00007668 Ry

     iteration # 24     ecut=    30.00 Ry     beta= 0.70
     Davidson diagonalization with overlap
     c_bands:  1 eigenvalues not converged
     ethr =  2.40E-07,  avg # of iterations =  6.8

     negative rho (up, down):  3.441E-02 0.000E+00

     total cpu time spent up to now is       65.1 secs

     total energy              =     -57.01007337 Ry
     estimated scf accuracy    <       0.00001057 Ry

     iteration # 25     ecut=    30.00 Ry     beta= 0.70
     Davidson diagonalization with overlap
     ethr =  3.30E-08,  avg # of iterations =  4.5

     negative rho (up, down):  3.436E-02 0.000E+00

     total cpu time spent up to now is       67.0 secs

     total energy              =     -57.01007727 Ry
     estimated scf accuracy    <       0.00000112 Ry

     iteration # 26     ecut=    30.00 Ry     beta= 0.70
     Davidson diagonalization with overlap
     ethr =  3.51E-09,  avg # of iterations =  4.9

     negative rho (up, down):  3.438E-02 0.000E+00

     total cpu time spent up to now is       69.4 secs

     total energy              =     -57.01007794 Ry
     estimated scf accuracy    <       0.00000034 Ry

     iteration # 27     ecut=    30.00 Ry     beta= 0.70
     Davidson diagonalization with overlap
     ethr =  1.05E-09,  avg # of iterations =  4.0

     negative rho (up, down):  3.438E-02 0.000E+00

     total cpu time spent up to now is       71.2 secs

     total energy              =     -57.01007803 Ry
     estimated scf accuracy    <       0.00000002 Ry

     iteration # 28     ecut=    30.00 Ry     beta= 0.70
     Davidson diagonalization with overlap
     ethr =  7.65E-11,  avg # of iterations =  6.6

     negative rho (up, down):  3.438E-02 0.000E+00

     total cpu time spent up to now is       75.1 secs

     End of self-consistent calculation

          k = 0.0000 0.0000 0.0000 (  1435 PWs)   bands (ev):

   -35.0735 -24.6380 -24.6380 -24.3346 -24.1964 -24.1964 -13.7096 -10.9729
   -10.9729  -8.4328  -0.6382  -0.1945  -0.1945  -0.0906   4.1368   6.4521
     6.8772   7.9570   7.9570   8.1005

          k = 0.0000 0.0962 0.0000 (  1419 PWs)   bands (ev):

   -35.0516 -26.6260 -26.4584 -24.2301 -22.1521 -21.8969 -13.5777 -11.1675
   -11.0976  -8.4747  -1.6009  -0.8802   0.3681   1.8284   4.0400   6.6575
     7.0775   7.3774   7.6223   8.2890

          k = 0.0000 0.1925 0.0000 (  1451 PWs)   bands (ev):

   -35.0007 -28.5555 -28.1735 -23.8265 -19.8645 -19.3176 -13.4504 -11.5068
   -11.5002  -8.3676  -2.2115  -1.5587   1.7626   3.0242   3.6932   6.1836
     6.8556   7.3193   7.7366   8.8199

          k = 0.0000 0.2887 0.0000 (  1473 PWs)   bands (ev):

   -34.8915 -30.1428 -29.5383 -23.1359 -17.9343 -16.9056 -13.8517 -11.3588
   -11.2785  -7.7959  -2.5114  -1.9795   1.9326   2.9063   3.6327   5.3796
     6.5688   7.8640   8.4431   8.8454

          k = 0.0000 0.3849 0.0000 (  1477 PWs)   bands (ev):

   -34.7204 -31.3590 -30.5218 -22.1886 -16.8909 -16.4363 -13.1769 -10.2463
   -10.1477  -6.8670  -3.4121  -1.4933   0.5798   2.2938   3.0415   4.5818
     6.1303   7.1620   7.8592  10.0092

          k = 0.0000 0.4811 0.0000 (  1483 PWs)   bands (ev):

   -34.5238 -32.1930 -31.1173 -21.1191 -17.6853 -16.6158 -11.3065  -9.4758
    -8.2990  -5.7208  -4.2258  -1.4826   0.1549   0.8384   2.1428   3.7472
     4.6687   5.5833   9.1533  12.0266

          k = 0.0000-0.5774 0.0000 (  1488 PWs)   bands (ev):

   -34.4033 -32.5062 -31.3179 -20.3526 -18.5084 -16.5902 -10.0355  -9.5666
    -7.3021  -4.7649  -4.7629  -1.0432  -0.9012  -0.0018   2.7799   3.1675
     3.5537   5.2218   9.4739  13.9356

          k = 0.0833 0.1443 0.0000 (  1444 PWs)   bands (ev):

   -35.0151 -28.0969 -27.7157 -23.9592 -20.4314 -20.0631 -13.4124 -11.7257
   -11.0949  -8.4364  -2.1311  -1.3430   1.4219   2.9474   3.7650   6.5962
     6.8053   7.1155   7.5437   8.6540

          k = 0.0833 0.2406 0.0000 (  1470 PWs)   bands (ev):

   -34.9371 -29.6612 -29.0453 -23.4439 -18.4230 -17.7987 -13.4397 -12.3492
   -10.7755  -8.1595  -2.2895  -2.1151   2.6450   3.0277   3.4074   5.6615
     6.0663   7.9537   8.4014   8.7211

          k = 0.0833 0.3368 0.0000 (  1485 PWs)   bands (ev):

   -34.7960 -30.9867 -30.1273 -22.6400 -17.0435 -16.3144 -13.5983 -11.7441
    -9.8222  -7.4505  -3.0879  -1.8118   1.1535   3.0708   3.3468   4.8688
     5.9940   7.5561   8.0131   9.3352

          k = 0.0833 0.4330 0.0000 (  1487 PWs)   bands (ev):

   -34.5988 -31.9813 -30.8718 -21.6367 -17.0937 -16.4994 -12.1363 -10.2901
    -8.4999  -6.3340  -3.9795  -1.3993   0.0597   1.9193   2.7060   4.0771
     4.5742   5.9774   9.1187  11.1109

          k = 0.0833 0.5292 0.0000 (  1493 PWs)   bands (ev):

   -34.4076 -32.5667 -31.2502 -20.6381 -18.2021 -16.4872 -10.5043  -9.5950
    -7.3135  -4.9852  -4.7173  -1.3024  -0.3989   0.5145   2.5095   3.3864
     3.4341   4.7056  10.0928  13.3396

          k = 0.1667 0.2887 0.0000 (  1472 PWs)   bands (ev):

   -34.8080 -30.8651 -29.9340 -22.8119 -16.8790 -16.6300 -13.0939 -12.7721
    -9.4741  -7.8259  -2.9449  -2.0267   1.8571   2.4979   4.2446   4.7809
     5.7315   7.6342   8.1069   9.1117

          k = 0.1667 0.3849 0.0000 (  1483 PWs)   bands (ev):

   -34.6277 -31.8984 -30.6634 -21.9441 -16.7721 -16.1891 -12.4555 -11.3987
    -7.8966  -7.0396  -3.7834  -1.4881   0.3892   2.0352   3.2143   3.8430
     5.4492   6.5122   8.2688  10.6162

          k = 0.1667 0.4811 0.0000 (  1489 PWs)   bands (ev):

   -34.4023 -32.6596 -31.1254 -21.0285 -17.5848 -16.2711 -11.1332 -10.0264
    -7.0345  -5.2391  -4.5570  -1.1585  -0.3924   0.9847   2.3955   2.7607
     3.7605   5.4122  10.3300  12.4605

          k = 0.1667 0.5774 0.0000 (  1496 PWs)   bands (ev):

   -34.2721 -32.9785 -31.2841 -20.5106 -18.1132 -16.3679 -10.1078 -10.0064
    -6.4052  -5.1601  -4.0933  -0.7678  -0.7242   0.3101   1.3496   2.6075
     3.3050   4.8574  11.3145  13.6586

          k = 0.2500 0.4330 0.0000 (  1494 PWs)   bands (ev):

   -34.4057 -32.6935 -31.0644 -21.1963 -17.2720 -16.1643 -11.4475 -10.3420
    -6.7064  -5.5392  -4.3299  -0.9878  -0.6192   1.0730   1.9583   2.7888
     3.7212   7.0344   9.0601  12.2246

          k = 0.2500 0.5292 0.0000 (  1491 PWs)   bands (ev):

   -34.1436 -33.2662 -31.2827 -20.6215 -17.5814 -16.4855 -10.5253  -9.8931
    -5.8766  -4.9233  -3.5733  -1.0872  -0.4404   0.1058   0.9830   1.8564
     2.1934   7.1903  10.8220  12.8392

          k = 0.3333 0.5774 0.0000 (  1482 PWs)   bands (ev):

   -33.7579 -33.7579 -31.3384 -20.4768 -17.0631 -17.0630 -10.0729 -10.0729
    -5.0683  -5.0683  -3.0532  -0.8583  -0.2179   0.1543   0.1543   1.2028
     1.2029   8.8078  11.1849  11.1849

     the Fermi energy is     4.5067 ev

!    total energy              =     -57.01007805 Ry
     estimated scf accuracy    <          5.6E-09 Ry
     smearing contrib. (-TS)   =      -0.00007178 Ry
     internal energy E=F+TS    =     -57.01000626 Ry

     The total energy is F=E-TS. E is the sum of the following terms:
     one-electron contribution =   -2230.92748882 Ry
     hartree contribution      =    1127.05163792 Ry
     xc contribution           =     -44.05833697 Ry
     ewald contribution        =    1090.92418161 Ry

     convergence has been achieved in  28 iterations

     negative rho (up, down):  3.438E-02 0.000E+00

     Forces acting on atoms (cartesian axes, Ry/au):

     atom    1 type  1   force =     0.00000000    0.00000000  -26.27654240
     atom    2 type  1   force =     0.00000000    0.00000000   -2.74466963
     atom    3 type  1   force =     0.00000000    0.00000000  -25.55279990
     atom    4 type  1   force =     0.00000000    0.00000000   23.20227943
     atom    5 type  1   force =     0.00000000    0.00000000  -23.20223139
     atom    6 type  1   force =     0.00000000    0.00000000   25.55278092
     atom    7 type  1   force =     0.00000000    0.00000000    2.74465907
     atom    8 type  1   force =     0.00000000    0.00000000   26.27652388

     Total force =    61.469979     Total SCF correction =     0.000235


     Computing stress (Cartesian axis) and pressure


     negative rho (up, down):  3.438E-02 0.000E+00
          total   stress  (Ry/bohr**3)                   (kbar)     P=     9781.71
   0.02639483  -0.00000000   0.00000000         3882.81       -0.00        0.00
  -0.00000000   0.02639483  -0.00000000           -0.00     3882.81       -0.00
   0.00000000  -0.00000000   0.14669448            0.00       -0.00    21579.50


     Writing all to output data dir /run/media/rfa/SATA/Skripsi/DFT/Graphene-copy/tmp/gr-abc-4L.save/ :
     XML data file, charge density, pseudopotentials, collected wavefunctions

     init_run     :      0.47s CPU      0.55s WALL (       1 calls)
     electrons    :    100.74s CPU     74.48s WALL (       1 calls)
     forces       :      0.35s CPU      0.27s WALL (       1 calls)
     stress       :      0.76s CPU      0.52s WALL (       1 calls)

     Called by init_run:
     wfcinit      :      0.27s CPU      0.15s WALL (       1 calls)
     potinit      :      0.01s CPU      0.01s WALL (       1 calls)
     hinit0       :      0.19s CPU      0.38s WALL (       1 calls)

     Called by electrons:
     c_bands      :     91.20s CPU     66.99s WALL (      28 calls)
     sum_band     :      8.57s CPU      6.55s WALL (      28 calls)
     v_of_rho     :      0.18s CPU      0.17s WALL (      29 calls)
     newd         :      0.68s CPU      0.64s WALL (      29 calls)
     mix_rho      :      0.06s CPU      0.06s WALL (      28 calls)

     Called by c_bands:
     init_us_2    :      0.25s CPU      0.22s WALL (    1121 calls)
     cegterg      :     87.43s CPU     64.25s WALL (     532 calls)

     Called by *egterg:
     cdiaghg      :      9.75s CPU      7.88s WALL (    3973 calls)
     h_psi        :     38.51s CPU     27.36s WALL (    3992 calls)
     s_psi        :      1.54s CPU      1.50s WALL (    3992 calls)
     g_psi        :      0.10s CPU      0.06s WALL (    3441 calls)

     Called by h_psi:
     h_psi:calbec :     20.18s CPU     13.85s WALL (    3992 calls)
     vloc_psi     :     16.22s CPU     11.52s WALL (    3992 calls)
     add_vuspsi   :      1.97s CPU      1.88s WALL (    3992 calls)

     General routines
     calbec       :     26.65s CPU     18.73s WALL (    4847 calls)
     fft          :      0.29s CPU      0.48s WALL (     344 calls)
     ffts         :      0.01s CPU      0.00s WALL (      28 calls)
     fftw         :     17.37s CPU     12.51s WALL (   78744 calls)

     Parallel routines

     PWSCF        :   1m42.44s CPU   1m16.14s WALL


   This run was terminated on:  15:25:46  16Apr2025            

=------------------------------------------------------------------------------=
   JOB DONE.
=------------------------------------------------------------------------------=
