
     Program PWSCF v.7.4.1 starts on 16Apr2025 at 15:26:14 

     This program is part of the open-source Quantum ESPRESSO suite
     for quantum simulation of materials; please cite
         "P. Giannozzi et al., J. Phys.:Condens. Matter 21 395502 (2009);
         "P. Giannozzi et al., J. Phys.:Condens. Matter 29 465901 (2017);
         "P. Giannozzi et al., J. Chem. Phys. 152 154105 (2020);
          URL http://www.quantum-espresso.org", 
     in publications or presentations arising from this work. More details at
     http://www.quantum-espresso.org/quote

     Parallel version (MPI), running on     7 processors

     MPI processes distributed on     1 nodes
     14486 MiB available memory on the printing compute node when the environment starts

     Waiting for input...
     Reading input from standard input

     Current dimensions of program PWSCF are:
     Max number of different atomic species (ntypx) = 10
     Max number of k-points (npk) =  40000
     Max angular momentum in pseudopotentials (lmaxx) =  4

     R & G space division:  proc/nbgrp/npool/nimage =       7
     Subspace diagonalization in iterative solution of the eigenvalue problem:
     a serial algorithm will be used


     Parallelization info
     --------------------
     sticks:   dense  smooth     PW     G-vecs:    dense   smooth      PW
     Min          29      29      9                 2121     2121     397
     Max          31      31     13                 2125     2125     402
     Sum         211     211     73                14861    14861    2797

     Using Slab Decomposition



     bravais-lattice index     =            4
     lattice parameter (alat)  =       4.6561  a.u.
     unit-cell volume          =     532.1899 (a.u.)^3
     number of atoms/cell      =            8
     number of atomic types    =            1
     number of electrons       =        32.00
     number of Kohn-Sham states=           20
     kinetic-energy cutoff     =      35.0000  Ry
     charge density cutoff     =     140.0000  Ry
     scf convergence threshold =      1.0E-08
     mixing beta               =       0.7000
     number of iterations used =            8  plain     mixing
     Exchange-correlation= PBE
                           (   1   4   3   4   0   0   0)

     celldm(1)=   4.656107  celldm(2)=   0.000000  celldm(3)=   6.087896
     celldm(4)=   0.000000  celldm(5)=   0.000000  celldm(6)=   0.000000

     crystal axes: (cart. coord. in units of alat)
               a(1) = (   1.000000   0.000000   0.000000 )  
               a(2) = (  -0.500000   0.866025   0.000000 )  
               a(3) = (   0.000000   0.000000   6.087896 )  

     reciprocal axes: (cart. coord. in units 2 pi/alat)
               b(1) = (  1.000000  0.577350 -0.000000 )  
               b(2) = (  0.000000  1.154701  0.000000 )  
               b(3) = (  0.000000 -0.000000  0.164260 )  


     PseudoPot. # 1 for C  read from file:
     /run/media/rfa/SATA/Skripsi/DFT/Graphene-copy/pseudo/C.pbe-n-rrkjus_psl.0.1.UPF
     MD5 check sum: 96a6a315177d77e6c95bf6fd3870f9e3
     Pseudo is Ultrasoft + core correction, Zval =  4.0
     Generated using &quot;atomic&quot; code by A. Dal Corso  v.6.3MaX
     Using radial grid of 1073 points,  4 beta functions with: 
                l(1) =   0
                l(2) =   0
                l(3) =   1
                l(4) =   1
     Q(r) pseudized with 0 coefficients 


     atomic species   valence    mass     pseudopotential
     C                 4.00    12.01070     C ( 1.00)

      6 Sym. Ops. (no inversion) found



   Cartesian axes

     site n.     atom                  positions (alat units)
         1        C      tau(   1) = (   0.0000000   0.5773503   3.0439478  )
         2        C      tau(   2) = (   0.5000000   0.2886751   3.0439478  )
         3        C      tau(   3) = (   0.0000000   0.0000000   3.2468777  )
         4        C      tau(   4) = (   0.0000000   0.5773503   3.2468777  )
         5        C      tau(   5) = (   0.5000000   0.2886751   3.4498075  )
         6        C      tau(   6) = (   0.0000000   0.0000000   3.4498075  )
         7        C      tau(   7) = (   0.0000000   0.5773503   3.6527374  )
         8        C      tau(   8) = (   0.5000000   0.2886751   3.6527374  )

     number of k points=    19  Marzari-Vanderbilt smearing, width (Ry)=  0.0200
                       cart. coord. in units 2pi/alat
        k(    1) = (   0.0000000   0.0000000   0.0000000), wk =   0.0138889
        k(    2) = (   0.0000000   0.0962250   0.0000000), wk =   0.0833333
        k(    3) = (   0.0000000   0.1924501   0.0000000), wk =   0.0833333
        k(    4) = (   0.0000000   0.2886751   0.0000000), wk =   0.0833333
        k(    5) = (   0.0000000   0.3849002   0.0000000), wk =   0.0833333
        k(    6) = (   0.0000000   0.4811252   0.0000000), wk =   0.0833333
        k(    7) = (   0.0000000  -0.5773503   0.0000000), wk =   0.0416667
        k(    8) = (   0.0833333   0.1443376   0.0000000), wk =   0.0833333
        k(    9) = (   0.0833333   0.2405626   0.0000000), wk =   0.1666667
        k(   10) = (   0.0833333   0.3367877   0.0000000), wk =   0.1666667
        k(   11) = (   0.0833333   0.4330127   0.0000000), wk =   0.1666667
        k(   12) = (   0.0833333   0.5292377   0.0000000), wk =   0.1666667
        k(   13) = (   0.1666667   0.2886751   0.0000000), wk =   0.0833333
        k(   14) = (   0.1666667   0.3849002   0.0000000), wk =   0.1666667
        k(   15) = (   0.1666667   0.4811252   0.0000000), wk =   0.1666667
        k(   16) = (   0.1666667   0.5773503   0.0000000), wk =   0.0833333
        k(   17) = (   0.2500000   0.4330127   0.0000000), wk =   0.0833333
        k(   18) = (   0.2500000   0.5292377   0.0000000), wk =   0.1666667
        k(   19) = (   0.3333333   0.5773503   0.0000000), wk =   0.0277778

     Dense  grid:    14861 G-vectors     FFT dimensions: (  18,  18, 108)

     Estimated max dynamical RAM per process >       5.52 MB

     Estimated total dynamical RAM >      38.61 MB

     Check: negative core charge=   -0.000028

     Initial potential from superposition of free atoms

     starting charge      31.9997, renormalised to      32.0000

     negative rho (up, down):  1.749E-03 0.000E+00
     Starting wfcs are   32 randomized atomic wfcs

     total cpu time spent up to now is        0.7 secs

     per-process dynamical memory:    10.4 Mb

     Self-consistent Calculation

     iteration #  1     ecut=    35.00 Ry     beta= 0.70
     Davidson diagonalization with overlap
     ethr =  1.00E-02,  avg # of iterations =  7.1

     negative rho (up, down):  2.398E-02 0.000E+00

     total cpu time spent up to now is        1.5 secs

     total energy              =     -50.10628301 Ry
     estimated scf accuracy    <      17.67224679 Ry

     iteration #  2     ecut=    35.00 Ry     beta= 0.70
     Davidson diagonalization with overlap
     c_bands:  1 eigenvalues not converged
     c_bands:  1 eigenvalues not converged
     ethr =  1.00E-02,  avg # of iterations = 18.4

     total cpu time spent up to now is        3.1 secs

     total energy              =     -26.03699801 Ry
     estimated scf accuracy    <     163.07291634 Ry

     iteration #  3     ecut=    35.00 Ry     beta= 0.70
     Davidson diagonalization with overlap
     c_bands:  1 eigenvalues not converged
     c_bands:  1 eigenvalues not converged
     ethr =  1.00E-02,  avg # of iterations = 14.1

     total cpu time spent up to now is        7.6 secs

     total energy              =     -57.72356901 Ry
     estimated scf accuracy    <       3.60167371 Ry

     iteration #  4     ecut=    35.00 Ry     beta= 0.70
     Davidson diagonalization with overlap
     ethr =  1.00E-02,  avg # of iterations =  2.6

     total cpu time spent up to now is        9.1 secs

     total energy              =     -57.90841384 Ry
     estimated scf accuracy    <       1.39554988 Ry

     iteration #  5     ecut=    35.00 Ry     beta= 0.70
     Davidson diagonalization with overlap
     ethr =  4.36E-03,  avg # of iterations =  2.1

     total cpu time spent up to now is       10.3 secs

     total energy              =     -57.91345789 Ry
     estimated scf accuracy    <       1.05821312 Ry

     iteration #  6     ecut=    35.00 Ry     beta= 0.70
     Davidson diagonalization with overlap
     ethr =  3.31E-03,  avg # of iterations =  1.7

     total cpu time spent up to now is       11.6 secs

     total energy              =     -57.81081763 Ry
     estimated scf accuracy    <       1.02243822 Ry

     iteration #  7     ecut=    35.00 Ry     beta= 0.70
     Davidson diagonalization with overlap
     ethr =  3.20E-03,  avg # of iterations =  1.0

     total cpu time spent up to now is       12.9 secs

     total energy              =     -57.82110900 Ry
     estimated scf accuracy    <       0.61496526 Ry

     iteration #  8     ecut=    35.00 Ry     beta= 0.70
     Davidson diagonalization with overlap
     ethr =  1.92E-03,  avg # of iterations =  1.5

     total cpu time spent up to now is       14.8 secs

     total energy              =     -57.84741461 Ry
     estimated scf accuracy    <       0.56519157 Ry

     iteration #  9     ecut=    35.00 Ry     beta= 0.70
     Davidson diagonalization with overlap
     ethr =  1.77E-03,  avg # of iterations =  1.0

     total cpu time spent up to now is       16.3 secs

     total energy              =     -57.88096496 Ry
     estimated scf accuracy    <       0.55898524 Ry

     iteration # 10     ecut=    35.00 Ry     beta= 0.70
     Davidson diagonalization with overlap
     ethr =  1.75E-03,  avg # of iterations =  1.0

     negative rho (up, down):  6.634E-07 0.000E+00

     total cpu time spent up to now is       17.9 secs

     total energy              =     -57.68469922 Ry
     estimated scf accuracy    <       0.60856716 Ry

     iteration # 11     ecut=    35.00 Ry     beta= 0.70
     Davidson diagonalization with overlap
     ethr =  1.75E-03,  avg # of iterations =  1.1

     negative rho (up, down):  1.570E-02 0.000E+00

     total cpu time spent up to now is       20.1 secs

     total energy              =     -57.52845603 Ry
     estimated scf accuracy    <       0.29510224 Ry

     iteration # 12     ecut=    35.00 Ry     beta= 0.70
     Davidson diagonalization with overlap
     ethr =  9.22E-04,  avg # of iterations =  9.8

     negative rho (up, down):  1.142E-02 0.000E+00

     total cpu time spent up to now is       24.1 secs

     total energy              =     -57.59919840 Ry
     estimated scf accuracy    <       0.22174048 Ry

     iteration # 13     ecut=    35.00 Ry     beta= 0.70
     Davidson diagonalization with overlap
     ethr =  6.93E-04,  avg # of iterations =  1.2

     negative rho (up, down):  1.191E-02 0.000E+00

     total cpu time spent up to now is       25.5 secs

     total energy              =     -57.55315357 Ry
     estimated scf accuracy    <       0.19302348 Ry

     iteration # 14     ecut=    35.00 Ry     beta= 0.70
     Davidson diagonalization with overlap
     ethr =  6.03E-04,  avg # of iterations =  1.4

     negative rho (up, down):  1.387E-02 0.000E+00

     total cpu time spent up to now is       27.5 secs

     total energy              =     -57.54392117 Ry
     estimated scf accuracy    <       0.06353194 Ry

     iteration # 15     ecut=    35.00 Ry     beta= 0.70
     Davidson diagonalization with overlap
     ethr =  1.99E-04,  avg # of iterations =  6.6

     negative rho (up, down):  1.294E-02 0.000E+00

     total cpu time spent up to now is       29.5 secs

     total energy              =     -57.53844146 Ry
     estimated scf accuracy    <       0.02268787 Ry

     iteration # 16     ecut=    35.00 Ry     beta= 0.70
     Davidson diagonalization with overlap
     c_bands:  1 eigenvalues not converged
     ethr =  7.09E-05,  avg # of iterations =  8.6

     negative rho (up, down):  1.330E-02 0.000E+00

     total cpu time spent up to now is       33.8 secs

     total energy              =     -57.55492700 Ry
     estimated scf accuracy    <       0.02342576 Ry

     iteration # 17     ecut=    35.00 Ry     beta= 0.70
     Davidson diagonalization with overlap
     ethr =  7.09E-05,  avg # of iterations =  2.6

     negative rho (up, down):  1.369E-02 0.000E+00

     total cpu time spent up to now is       35.7 secs

     total energy              =     -57.54592158 Ry
     estimated scf accuracy    <       0.02188588 Ry

     iteration # 18     ecut=    35.00 Ry     beta= 0.70
     Davidson diagonalization with overlap
     ethr =  6.84E-05,  avg # of iterations =  1.6

     negative rho (up, down):  1.389E-02 0.000E+00

     total cpu time spent up to now is       37.5 secs

     total energy              =     -57.54855957 Ry
     estimated scf accuracy    <       0.00232669 Ry

     iteration # 19     ecut=    35.00 Ry     beta= 0.70
     Davidson diagonalization with overlap
     c_bands:  1 eigenvalues not converged
     c_bands:  1 eigenvalues not converged
     c_bands:  1 eigenvalues not converged
     ethr =  7.27E-06,  avg # of iterations = 13.0

     negative rho (up, down):  1.396E-02 0.000E+00

     total cpu time spent up to now is       42.4 secs

     total energy              =     -57.54954009 Ry
     estimated scf accuracy    <       0.00050004 Ry

     iteration # 20     ecut=    35.00 Ry     beta= 0.70
     Davidson diagonalization with overlap
     c_bands:  1 eigenvalues not converged
     ethr =  1.56E-06,  avg # of iterations =  7.7

     negative rho (up, down):  1.408E-02 0.000E+00

     total cpu time spent up to now is       45.5 secs

     total energy              =     -57.54963942 Ry
     estimated scf accuracy    <       0.00012607 Ry

     iteration # 21     ecut=    35.00 Ry     beta= 0.70
     Davidson diagonalization with overlap
     ethr =  3.94E-07,  avg # of iterations =  5.0

     negative rho (up, down):  1.416E-02 0.000E+00

     total cpu time spent up to now is       48.2 secs

     total energy              =     -57.54967687 Ry
     estimated scf accuracy    <       0.00002370 Ry

     iteration # 22     ecut=    35.00 Ry     beta= 0.70
     Davidson diagonalization with overlap
     ethr =  7.41E-08,  avg # of iterations =  6.1

     negative rho (up, down):  1.417E-02 0.000E+00

     total cpu time spent up to now is       52.0 secs

     total energy              =     -57.54969438 Ry
     estimated scf accuracy    <       0.00001396 Ry

     iteration # 23     ecut=    35.00 Ry     beta= 0.70
     Davidson diagonalization with overlap
     ethr =  4.36E-08,  avg # of iterations =  2.2

     negative rho (up, down):  1.417E-02 0.000E+00

     total cpu time spent up to now is       53.1 secs

     total energy              =     -57.54969439 Ry
     estimated scf accuracy    <       0.00000261 Ry

     iteration # 24     ecut=    35.00 Ry     beta= 0.70
     Davidson diagonalization with overlap
     ethr =  8.17E-09,  avg # of iterations =  6.0

     negative rho (up, down):  1.417E-02 0.000E+00

     total cpu time spent up to now is       56.6 secs

     total energy              =     -57.54969655 Ry
     estimated scf accuracy    <       0.00000078 Ry

     iteration # 25     ecut=    35.00 Ry     beta= 0.70
     Davidson diagonalization with overlap
     ethr =  2.44E-09,  avg # of iterations =  3.4

     negative rho (up, down):  1.417E-02 0.000E+00

     total cpu time spent up to now is       59.2 secs

     total energy              =     -57.54969681 Ry
     estimated scf accuracy    <       0.00000003 Ry

     iteration # 26     ecut=    35.00 Ry     beta= 0.70
     Davidson diagonalization with overlap
     ethr =  1.02E-10,  avg # of iterations = 10.3

     negative rho (up, down):  1.417E-02 0.000E+00

     total cpu time spent up to now is       67.0 secs

     total energy              =     -57.54969691 Ry
     estimated scf accuracy    <       0.00000002 Ry

     iteration # 27     ecut=    35.00 Ry     beta= 0.70
     Davidson diagonalization with overlap
     ethr =  6.23E-11,  avg # of iterations =  1.8

     negative rho (up, down):  1.417E-02 0.000E+00

     total cpu time spent up to now is       69.0 secs

     End of self-consistent calculation

          k = 0.0000 0.0000 0.0000 (  1907 PWs)   bands (ev):

   -35.0131 -24.4835 -24.3633 -24.3633 -23.9841 -23.9841 -14.2069 -10.7247
   -10.7247  -8.6059  -1.0156  -0.5461   0.0107   0.0107   4.4960   6.8106
     7.1854   7.9970   8.1999   8.2003

          k = 0.0000 0.0962 0.0000 (  1889 PWs)   bands (ev):

   -34.9957 -26.4260 -26.2043 -24.3206 -21.9100 -21.6861 -14.0974 -10.9215
   -10.8783  -8.6854  -2.0399  -0.7883   0.5806   1.5861   4.3889   7.0095
     7.3386   7.5743   7.8525   8.0883

          k = 0.0000 0.1925 0.0000 (  1891 PWs)   bands (ev):

   -34.9277 -28.3487 -27.9133 -23.8933 -19.6077 -19.0592 -13.8568 -11.4463
   -11.2568  -8.5514  -2.5485  -1.4268   1.9806   2.8706   3.9665   6.4097
     7.0692   7.6602   8.0306   8.5762

          k = 0.0000 0.2887 0.0000 (  1870 PWs)   bands (ev):

   -34.7978 -29.9364 -29.2713 -23.1811 -17.6559 -16.6351 -14.1094 -11.5063
   -11.1093  -7.9006  -2.4597  -2.0860   1.9925   3.1487   3.6651   5.6213
     6.7386   7.7288   8.7326   9.1618

          k = 0.0000 0.3849 0.0000 (  1848 PWs)   bands (ev):

   -34.6196 -31.1661 -30.2539 -22.2229 -16.6080 -16.3786 -13.3392 -10.6087
    -9.8893  -6.8821  -3.2444  -1.5570   0.6837   2.5230   2.9861   4.7751
     6.1130   7.2908   8.0114  10.3475

          k = 0.0000 0.4811 0.0000 (  1838 PWs)   bands (ev):

   -34.4197 -32.0031 -30.8483 -21.1159 -17.7478 -16.3288 -11.5616  -9.8914
    -8.0109  -5.5726  -4.0255  -1.3056   0.3217   1.0291   1.9447   3.8996
     4.6387   5.7839   9.3021  12.3539

          k = 0.0000-0.5774 0.0000 (  1852 PWs)   bands (ev):

   -34.3156 -32.3224 -31.0479 -20.3344 -18.6828 -16.2971 -10.4018 -10.1204
    -6.9764  -4.6026  -4.5098  -0.7898  -0.7130   0.1620   2.3897   3.1359
     3.6687   5.4204   9.6228  14.1484

          k = 0.0833 0.1443 0.0000 (  1893 PWs)   bands (ev):

   -34.9469 -27.8916 -27.4562 -24.0433 -20.1600 -19.8117 -13.8691 -11.5624
   -10.8732  -8.6685  -2.5044  -1.2251   1.6341   2.7043   4.0964   6.8375
     6.9282   7.4582   7.8528   8.4786

          k = 0.0833 0.2406 0.0000 (  1862 PWs)   bands (ev):

   -34.8510 -29.4581 -28.7832 -23.4819 -18.1383 -17.5273 -13.7564 -12.3269
   -10.6302  -8.3061  -2.5051  -1.9746   2.6968   3.2158   3.5144   5.9133
     6.2698   8.2338   8.3904   8.7437

          k = 0.0833 0.3368 0.0000 (  1859 PWs)   bands (ev):

   -34.6940 -30.7866 -29.8622 -22.6597 -16.7556 -16.1101 -13.8227 -11.8319
    -9.7410  -7.5046  -2.9207  -1.9170   1.2780   3.0483   3.5813   5.0939
     6.0728   7.5618   8.1385   9.6790

          k = 0.0833 0.4330 0.0000 (  1850 PWs)   bands (ev):

   -34.4932 -31.7927 -30.6059 -21.6424 -17.0902 -16.2225 -12.3735 -10.5055
    -8.3671  -6.2398  -3.7813  -1.3338   0.1924   2.0336   2.6961   4.2210
     4.6125   6.1228   9.2580  11.4290

          k = 0.0833 0.5292 0.0000 (  1844 PWs)   bands (ev):

   -34.3078 -32.3813 -30.9830 -20.6122 -18.2875 -16.2062 -10.8964  -9.9850
    -7.0115  -4.7829  -4.4815  -1.0858  -0.1912   0.6222   2.4034   3.2482
     3.5724   4.9304  10.2586  13.6160

          k = 0.1667 0.2887 0.0000 (  1865 PWs)   bands (ev):

   -34.7233 -30.6715 -29.6771 -22.8308 -16.5751 -16.4062 -13.4980 -12.7594
    -9.3582  -7.9184  -2.7627  -2.1679   2.1270   2.3280   4.5076   4.9790
     5.9572   7.3800   8.2237   9.4661

          k = 0.1667 0.3849 0.0000 (  1860 PWs)   bands (ev):

   -34.5295 -31.7177 -30.4029 -21.9615 -16.6903 -15.9169 -12.8564 -11.4550
    -7.8243  -7.0090  -3.5670  -1.5369   0.5800   1.9120   3.4105   4.0161
     5.6436   6.4568   8.3262  10.9305

          k = 0.1667 0.4811 0.0000 (  1855 PWs)   bands (ev):

   -34.2969 -32.4862 -30.8645 -21.0169 -17.6060 -16.0353 -11.5884 -10.2254
    -6.8827  -5.0124  -4.3236  -0.9895  -0.2742   0.9914   2.4630   2.9195
     4.0386   5.2556  10.4291  12.6510

          k = 0.1667 0.5774 0.0000 (  1848 PWs)   bands (ev):

   -34.1570 -32.8042 -31.0217 -20.4589 -18.1749 -16.1357 -10.7174 -10.1218
    -6.0994  -4.9580  -3.7788  -0.6255  -0.4546   0.3359   1.3843   2.8063
     3.5784   4.6251  11.4835  13.5487

          k = 0.2500 0.4330 0.0000 (  1856 PWs)   bands (ev):

   -34.2883 -32.5340 -30.8094 -21.1750 -17.2509 -15.9684 -11.8971 -10.4605
    -6.6397  -5.3022  -4.0541  -0.9717  -0.3827   1.0023   2.0980   2.9959
     4.0598   6.7836   9.1529  12.4935

          k = 0.2500 0.5292 0.0000 (  1855 PWs)   bands (ev):

   -34.0154 -33.1157 -31.0252 -20.5794 -17.5962 -16.3428 -10.9462 -10.1313
    -5.6668  -4.6761  -3.2218  -0.8933  -0.5007   0.2829   1.1053   2.0669
     2.4753   6.9281  10.8281  12.8632

          k = 0.3333 0.5774 0.0000 (  1860 PWs)   bands (ev):

   -33.6270 -33.6269 -31.0801 -20.4588 -17.0196 -17.0196 -10.4121 -10.4118
    -4.8379  -4.8378  -2.6573  -1.0305   0.0854   0.3560   0.3560   1.3938
     1.3938   8.3908  11.1856  11.1856

     the Fermi energy is     4.5902 ev

!    total energy              =     -57.54969691 Ry
     estimated scf accuracy    <          4.9E-09 Ry
     smearing contrib. (-TS)   =       0.00009753 Ry
     internal energy E=F+TS    =     -57.54979444 Ry

     The total energy is F=E-TS. E is the sum of the following terms:
     one-electron contribution =   -2232.13530481 Ry
     hartree contribution      =    1127.76474683 Ry
     xc contribution           =     -44.10341736 Ry
     ewald contribution        =    1090.92418089 Ry

     convergence has been achieved in  27 iterations

     negative rho (up, down):  1.417E-02 0.000E+00

     Forces acting on atoms (cartesian axes, Ry/au):

     atom    1 type  1   force =     0.00000000    0.00000000  -25.35733725
     atom    2 type  1   force =     0.00000000    0.00000000   -2.52082109
     atom    3 type  1   force =     0.00000000    0.00000000  -24.75688357
     atom    4 type  1   force =     0.00000000    0.00000000   22.50229835
     atom    5 type  1   force =     0.00000000   -0.00000000  -22.50266834
     atom    6 type  1   force =     0.00000000    0.00000000   24.75718292
     atom    7 type  1   force =     0.00000000    0.00000000    2.52113870
     atom    8 type  1   force =     0.00000000    0.00000000   25.35709027

     Total force =    59.474635     Total SCF correction =     0.000324


     Computing stress (Cartesian axis) and pressure


     negative rho (up, down):  1.417E-02 0.000E+00
          total   stress  (Ry/bohr**3)                   (kbar)     P=     9893.05
   0.02778263   0.00000000   0.00000000         4086.97        0.00        0.00
   0.00000000   0.02778263   0.00000000            0.00     4086.97        0.00
   0.00000000   0.00000000   0.14618957            0.00        0.00    21505.23


     Writing all to output data dir /run/media/rfa/SATA/Skripsi/DFT/Graphene-copy/tmp/gr-abc-4L.save/ :
     XML data file, charge density, pseudopotentials, collected wavefunctions

     init_run     :      0.54s CPU      0.59s WALL (       1 calls)
     electrons    :     92.58s CPU     68.40s WALL (       1 calls)
     forces       :      0.30s CPU      0.19s WALL (       1 calls)
     stress       :      0.88s CPU      0.59s WALL (       1 calls)

     Called by init_run:
     wfcinit      :      0.30s CPU      0.17s WALL (       1 calls)
     potinit      :      0.00s CPU      0.01s WALL (       1 calls)
     hinit0       :      0.23s CPU      0.41s WALL (       1 calls)

     Called by electrons:
     c_bands      :     84.32s CPU     62.18s WALL (      27 calls)
     sum_band     :      7.00s CPU      5.05s WALL (      27 calls)
     v_of_rho     :      0.18s CPU      0.14s WALL (      28 calls)
     newd         :      0.94s CPU      0.91s WALL (      28 calls)
     mix_rho      :      0.08s CPU      0.06s WALL (      27 calls)

     Called by c_bands:
     init_us_2    :      0.30s CPU      0.24s WALL (    1083 calls)
     cegterg      :     81.03s CPU     59.84s WALL (     513 calls)

     Called by *egterg:
     cdiaghg      :      6.62s CPU      4.92s WALL (    3151 calls)
     h_psi        :     37.14s CPU     26.77s WALL (    3170 calls)
     s_psi        :      1.39s CPU      1.30s WALL (    3170 calls)
     g_psi        :      0.11s CPU      0.07s WALL (    2638 calls)

     Called by h_psi:
     h_psi:calbec :     17.05s CPU     12.03s WALL (    3170 calls)
     vloc_psi     :     17.82s CPU     12.63s WALL (    3170 calls)
     add_vuspsi   :      2.13s CPU      2.00s WALL (    3170 calls)

     General routines
     calbec       :     21.76s CPU     15.36s WALL (    4006 calls)
     fft          :      0.31s CPU      0.48s WALL (     333 calls)
     ffts         :      0.02s CPU      0.01s WALL (      27 calls)
     fftw         :     19.04s CPU     13.54s WALL (   80858 calls)

     Parallel routines

     PWSCF        :   1m34.39s CPU   1m10.09s WALL


   This run was terminated on:  15:27:24  16Apr2025            

=------------------------------------------------------------------------------=
   JOB DONE.
=------------------------------------------------------------------------------=
