
     Program PWSCF v.7.4.1 starts on 19Mar2025 at 10:27: 4 

     This program is part of the open-source Quantum ESPRESSO suite
     for quantum simulation of materials; please cite
         "P. Giannozzi et al., J. Phys.:Condens. Matter 21 395502 (2009);
         "P. Giannozzi et al., J. Phys.:Condens. Matter 29 465901 (2017);
         "P. Giannozzi et al., J. Chem. Phys. 152 154105 (2020);
          URL http://www.quantum-espresso.org", 
     in publications or presentations arising from this work. More details at
     http://www.quantum-espresso.org/quote

     Parallel version (MPI), running on     7 processors

     MPI processes distributed on     1 nodes
     10749 MiB available memory on the printing compute node when the environment starts

     Waiting for input...
     Reading input from standard input

     Current dimensions of program PWSCF are:
     Max number of different atomic species (ntypx) = 10
     Max number of k-points (npk) =  40000
     Max angular momentum in pseudopotentials (lmaxx) =  4

     Atomic positions and unit cell read from directory:
     ../../../../tmp/gr-aa-2L.save/


     R & G space division:  proc/nbgrp/npool/nimage =       7
     Subspace diagonalization in iterative solution of the eigenvalue problem:
     a serial algorithm will be used


     Parallelization info
     --------------------
     sticks:   dense  smooth     PW     G-vecs:    dense   smooth      PW
     Min          51      51     15                 4783     4783     815
     Max          52      52     16                 4800     4800     838
     Sum         361     361    109                33523    33523    5791

     Using Slab Decomposition



     bravais-lattice index     =            4
     lattice parameter (alat)  =       4.6561  a.u.
     unit-cell volume          =     532.1899 (a.u.)^3
     number of atoms/cell      =            4
     number of atomic types    =            1
     number of electrons       =        16.00
     number of Kohn-Sham states=           16
     kinetic-energy cutoff     =      60.0000  Ry
     charge density cutoff     =     240.0000  Ry
     Exchange-correlation= PBE
                           (   1   4   3   4   0   0   0)

     celldm(1)=   4.656107  celldm(2)=   0.000000  celldm(3)=   6.087896
     celldm(4)=   0.000000  celldm(5)=   0.000000  celldm(6)=   0.000000

     crystal axes: (cart. coord. in units of alat)
               a(1) = (   1.000000   0.000000   0.000000 )  
               a(2) = (  -0.500000   0.866025   0.000000 )  
               a(3) = (   0.000000   0.000000   6.087896 )  

     reciprocal axes: (cart. coord. in units 2 pi/alat)
               b(1) = (  1.000000  0.577350 -0.000000 )  
               b(2) = (  0.000000  1.154701  0.000000 )  
               b(3) = (  0.000000 -0.000000  0.164260 )  


     PseudoPot. # 1 for C  read from file:
     ../../../../pseudo/C.pbe-n-rrkjus_psl.0.1.UPF
     MD5 check sum: 96a6a315177d77e6c95bf6fd3870f9e3
     Pseudo is Ultrasoft + core correction, Zval =  4.0
     Generated using &quot;atomic&quot; code by A. Dal Corso  v.6.3MaX
     Using radial grid of 1073 points,  4 beta functions with: 
                l(1) =   0
                l(2) =   0
                l(3) =   1
                l(4) =   1
     Q(r) pseudized with 0 coefficients 


     atomic species   valence    mass     pseudopotential
     C                 4.00    12.01070     C ( 1.00)

     12 Sym. Ops. (no inversion) found



   Cartesian axes

     site n.     atom                  positions (alat units)
         1        C      tau(   1) = (   0.0000000   0.5773503   2.9365620  )
         2        C      tau(   2) = (   0.5000000   0.2886751   2.9365620  )
         3        C      tau(   3) = (   0.0000000   0.5773503   3.3542635  )
         4        C      tau(   4) = (   0.5000000   0.2886751   3.3542635  )

     number of k points=    91  Marzari-Vanderbilt smearing, width (Ry)=  0.0200
                       cart. coord. in units 2pi/alat
        k(    1) = (   0.0000000   0.0000000   0.0000000), wk =   0.0219780
        k(    2) = (   0.0166667   0.0000000   0.0000000), wk =   0.0219780
        k(    3) = (   0.0333333   0.0000000   0.0000000), wk =   0.0219780
        k(    4) = (   0.0500000   0.0000000   0.0000000), wk =   0.0219780
        k(    5) = (   0.0666667   0.0000000   0.0000000), wk =   0.0219780
        k(    6) = (   0.0833333   0.0000000   0.0000000), wk =   0.0219780
        k(    7) = (   0.1000000   0.0000000   0.0000000), wk =   0.0219780
        k(    8) = (   0.1166667   0.0000000   0.0000000), wk =   0.0219780
        k(    9) = (   0.1333333   0.0000000   0.0000000), wk =   0.0219780
        k(   10) = (   0.1500000   0.0000000   0.0000000), wk =   0.0219780
        k(   11) = (   0.1666667   0.0000000   0.0000000), wk =   0.0219780
        k(   12) = (   0.1833333   0.0000000   0.0000000), wk =   0.0219780
        k(   13) = (   0.2000000   0.0000000   0.0000000), wk =   0.0219780
        k(   14) = (   0.2166667   0.0000000   0.0000000), wk =   0.0219780
        k(   15) = (   0.2333333   0.0000000   0.0000000), wk =   0.0219780
        k(   16) = (   0.2500000   0.0000000   0.0000000), wk =   0.0219780
        k(   17) = (   0.2666667   0.0000000   0.0000000), wk =   0.0219780
        k(   18) = (   0.2833333   0.0000000   0.0000000), wk =   0.0219780
        k(   19) = (   0.3000000   0.0000000   0.0000000), wk =   0.0219780
        k(   20) = (   0.3166667   0.0000000   0.0000000), wk =   0.0219780
        k(   21) = (   0.3333333   0.0000000   0.0000000), wk =   0.0219780
        k(   22) = (   0.3500000   0.0000000   0.0000000), wk =   0.0219780
        k(   23) = (   0.3666667   0.0000000   0.0000000), wk =   0.0219780
        k(   24) = (   0.3833333   0.0000000   0.0000000), wk =   0.0219780
        k(   25) = (   0.4000000   0.0000000   0.0000000), wk =   0.0219780
        k(   26) = (   0.4166667   0.0000000   0.0000000), wk =   0.0219780
        k(   27) = (   0.4333333   0.0000000   0.0000000), wk =   0.0219780
        k(   28) = (   0.4500000   0.0000000   0.0000000), wk =   0.0219780
        k(   29) = (   0.4666667   0.0000000   0.0000000), wk =   0.0219780
        k(   30) = (   0.4833333   0.0000000   0.0000000), wk =   0.0219780
        k(   31) = (   0.5000000   0.0000000   0.0000000), wk =   0.0219780
        k(   32) = (   0.5166667   0.0000000   0.0000000), wk =   0.0219780
        k(   33) = (   0.5333333   0.0000000   0.0000000), wk =   0.0219780
        k(   34) = (   0.5500000   0.0000000   0.0000000), wk =   0.0219780
        k(   35) = (   0.5666667   0.0000000   0.0000000), wk =   0.0219780
        k(   36) = (   0.5833333   0.0000000   0.0000000), wk =   0.0219780
        k(   37) = (   0.6000000   0.0000000   0.0000000), wk =   0.0219780
        k(   38) = (   0.6166667   0.0000000   0.0000000), wk =   0.0219780
        k(   39) = (   0.6333333   0.0000000   0.0000000), wk =   0.0219780
        k(   40) = (   0.6500000   0.0000000   0.0000000), wk =   0.0219780
        k(   41) = (   0.6666667   0.0000000   0.0000000), wk =   0.0219780
        k(   42) = (   0.6583333   0.0144338   0.0000000), wk =   0.0219780
        k(   43) = (   0.6500000   0.0288675   0.0000000), wk =   0.0219780
        k(   44) = (   0.6416667   0.0433013   0.0000000), wk =   0.0219780
        k(   45) = (   0.6333333   0.0577350   0.0000000), wk =   0.0219780
        k(   46) = (   0.6250000   0.0721688   0.0000000), wk =   0.0219780
        k(   47) = (   0.6166667   0.0866025   0.0000000), wk =   0.0219780
        k(   48) = (   0.6083333   0.1010363   0.0000000), wk =   0.0219780
        k(   49) = (   0.6000000   0.1154701   0.0000000), wk =   0.0219780
        k(   50) = (   0.5916667   0.1299038   0.0000000), wk =   0.0219780
        k(   51) = (   0.5833333   0.1443376   0.0000000), wk =   0.0219780
        k(   52) = (   0.5750000   0.1587713   0.0000000), wk =   0.0219780
        k(   53) = (   0.5666667   0.1732051   0.0000000), wk =   0.0219780
        k(   54) = (   0.5583333   0.1876388   0.0000000), wk =   0.0219780
        k(   55) = (   0.5500000   0.2020726   0.0000000), wk =   0.0219780
        k(   56) = (   0.5416667   0.2165064   0.0000000), wk =   0.0219780
        k(   57) = (   0.5333333   0.2309401   0.0000000), wk =   0.0219780
        k(   58) = (   0.5250000   0.2453739   0.0000000), wk =   0.0219780
        k(   59) = (   0.5166667   0.2598076   0.0000000), wk =   0.0219780
        k(   60) = (   0.5083333   0.2742414   0.0000000), wk =   0.0219780
        k(   61) = (   0.5000000   0.2886751   0.0000000), wk =   0.0219780
        k(   62) = (   0.4833333   0.2790526   0.0000000), wk =   0.0219780
        k(   63) = (   0.4666667   0.2694301   0.0000000), wk =   0.0219780
        k(   64) = (   0.4500000   0.2598076   0.0000000), wk =   0.0219780
        k(   65) = (   0.4333333   0.2501851   0.0000000), wk =   0.0219780
        k(   66) = (   0.4166667   0.2405626   0.0000000), wk =   0.0219780
        k(   67) = (   0.4000000   0.2309401   0.0000000), wk =   0.0219780
        k(   68) = (   0.3833333   0.2213176   0.0000000), wk =   0.0219780
        k(   69) = (   0.3666667   0.2116951   0.0000000), wk =   0.0219780
        k(   70) = (   0.3500000   0.2020726   0.0000000), wk =   0.0219780
        k(   71) = (   0.3333333   0.1924501   0.0000000), wk =   0.0219780
        k(   72) = (   0.3166667   0.1828276   0.0000000), wk =   0.0219780
        k(   73) = (   0.3000000   0.1732051   0.0000000), wk =   0.0219780
        k(   74) = (   0.2833333   0.1635826   0.0000000), wk =   0.0219780
        k(   75) = (   0.2666667   0.1539601   0.0000000), wk =   0.0219780
        k(   76) = (   0.2500000   0.1443376   0.0000000), wk =   0.0219780
        k(   77) = (   0.2333333   0.1347151   0.0000000), wk =   0.0219780
        k(   78) = (   0.2166667   0.1250926   0.0000000), wk =   0.0219780
        k(   79) = (   0.2000000   0.1154701   0.0000000), wk =   0.0219780
        k(   80) = (   0.1833333   0.1058475   0.0000000), wk =   0.0219780
        k(   81) = (   0.1666667   0.0962250   0.0000000), wk =   0.0219780
        k(   82) = (   0.1500000   0.0866025   0.0000000), wk =   0.0219780
        k(   83) = (   0.1333333   0.0769800   0.0000000), wk =   0.0219780
        k(   84) = (   0.1166667   0.0673575   0.0000000), wk =   0.0219780
        k(   85) = (   0.1000000   0.0577350   0.0000000), wk =   0.0219780
        k(   86) = (   0.0833333   0.0481125   0.0000000), wk =   0.0219780
        k(   87) = (   0.0666667   0.0384900   0.0000000), wk =   0.0219780
        k(   88) = (   0.0500000   0.0288675   0.0000000), wk =   0.0219780
        k(   89) = (   0.0333333   0.0192450   0.0000000), wk =   0.0219780
        k(   90) = (   0.0166667   0.0096225   0.0000000), wk =   0.0219780
        k(   91) = (   0.0000000   0.0000000   0.0000000), wk =   0.0219780

     Dense  grid:    33523 G-vectors     FFT dimensions: (  24,  24, 144)

     Estimated max dynamical RAM per process >       5.71 MB

     Estimated total dynamical RAM >      39.96 MB

     Check: negative core charge=   -0.000004

     The potential is recalculated from file :
     ../../../../tmp/gr-aa-2L.save/charge-density


     negative rho (up, down):  3.923E-04 0.000E+00
     Starting wfcs are   16 randomized atomic wfcs

     Band Structure Calculation
     Davidson diagonalization with overlap
     c_bands:  1 eigenvalues not converged
     c_bands:  1 eigenvalues not converged
     c_bands:  1 eigenvalues not converged
     c_bands:  1 eigenvalues not converged
     c_bands:  1 eigenvalues not converged
     c_bands:  1 eigenvalues not converged
     c_bands:  2 eigenvalues not converged
     c_bands:  2 eigenvalues not converged
     c_bands:  2 eigenvalues not converged
     c_bands:  1 eigenvalues not converged
     c_bands:  1 eigenvalues not converged
     c_bands:  2 eigenvalues not converged
     c_bands:  1 eigenvalues not converged
     c_bands:  1 eigenvalues not converged
     c_bands:  1 eigenvalues not converged
     c_bands:  1 eigenvalues not converged
     c_bands:  1 eigenvalues not converged

     ethr =  6.25E-09,  avg # of iterations = 96.1

     total cpu time spent up to now is       49.3 secs

     End of band structure calculation

          k = 0.0000 0.0000 0.0000 (  4149 PWs)   bands (ev):

   -28.3487 -14.2075 -10.2121 -10.2121  -9.5186  -5.0459   1.6444   1.6444
     3.0437   3.0437   3.8768   3.9227   5.1822   6.2271   8.5889  10.2629

          k = 0.0167 0.0000 0.0000 (  4143 PWs)   bands (ev):

   -28.3439 -14.2024 -10.2486 -10.2225  -9.5144  -5.0224   1.6481   1.6657
     3.0208   3.0331   3.8840   3.9293   5.1895   6.2337   8.5962  10.2690

          k = 0.0333 0.0000 0.0000 (  4147 PWs)   bands (ev):

   -28.3296 -14.1871 -10.3554 -10.2540  -9.5016  -4.9546   1.6591   1.7294
     2.9526   3.0014   3.9054   3.9493   5.2116   6.2535   8.6182  10.2873

          k = 0.0500 0.0000 0.0000 (  4165 PWs)   bands (ev):

   -28.3057 -14.1617 -10.5253 -10.3066  -9.4797  -4.8497   1.6777   1.8355
     2.8415   2.9487   3.9410   3.9827   5.2482   6.2866   8.6548  10.3178

          k = 0.0667 0.0000 0.0000 (  4169 PWs)   bands (ev):

   -28.2722 -14.1260 -10.7485 -10.3806  -9.4479  -4.7176   1.7044   1.9836
     2.6907   2.8753   3.9908   4.0294   5.2993   6.3328   8.7057  10.3606

          k = 0.0833 0.0000 0.0000 (  4169 PWs)   bands (ev):

   -28.2292 -14.0802 -11.0147 -10.4756  -9.4060  -4.5684   1.7396   2.1728
     2.5046   2.7819   4.0545   4.0895   5.3648   6.3923   8.7708  10.4156

          k = 0.1000 0.0000 0.0000 (  4169 PWs)   bands (ev):

   -28.1767 -14.0242 -11.3144 -10.5910  -9.3537  -4.4109   1.7840   2.2875
     2.4020   2.6689   4.1322   4.1629   5.4443   6.4650   8.8498  10.4830

          k = 0.1167 0.0000 0.0000 (  4175 PWs)   bands (ev):

   -28.1147 -13.9581 -11.6396 -10.7258  -9.2909  -4.2525   1.8380   2.0441
     2.5372   2.6691   4.2237   4.2498   5.5376   6.5510   8.9424  10.5626

          k = 0.1333 0.0000 0.0000 (  4171 PWs)   bands (ev):

   -28.0432 -13.8819 -11.9837 -10.8788  -9.2178  -4.0982   1.7788   1.9024
     2.3877   2.9715   4.3287   4.3501   5.6446   6.6502   9.0484  10.6547

          k = 0.1500 0.0000 0.0000 (  4179 PWs)   bands (ev):

   -27.9623 -13.7957 -12.3415 -11.0486  -9.1346  -3.9516   1.4956   1.9775
     2.2215   3.3058   4.4473   4.4638   5.7651   6.7627   9.1675  10.7591

          k = 0.1667 0.0000 0.0000 (  4169 PWs)   bands (ev):

   -27.8719 -13.6994 -12.7086 -11.2338  -9.0413  -3.8147   1.1981   2.0397
     2.0640   3.6678   4.5790   4.5913   5.8987   6.8884   9.2993  10.8759

          k = 0.1833 0.0000 0.0000 (  4167 PWs)   bands (ev):

   -27.7722 -13.5932 -13.0820 -11.4329  -8.9383  -3.6886   0.8894   1.8435
     2.1622   4.0526   4.7232   4.7331   6.0455   7.0274   9.4436  11.0051

          k = 0.2000 0.0000 0.0000 (  4179 PWs)   bands (ev):

   -27.6632 -13.4770 -13.4588 -11.6442  -8.8258  -3.5736   0.5724   1.6344
     2.2724   4.4544   4.8790   4.8899   6.2051   7.1796   9.6001  11.1466

          k = 0.2167 0.0000 0.0000 (  4175 PWs)   bands (ev):

   -27.5449 -13.8369 -13.3509 -11.8664  -8.7040  -3.4697   0.2494   1.4137
     2.3950   4.8666   5.0467   5.0615   6.3774   7.3450   9.7685  11.3004

          k = 0.2333 0.0000 0.0000 (  4163 PWs)   bands (ev):

   -27.4173 -14.2147 -13.2150 -12.0979  -8.5732  -3.3763  -0.0776   1.1828
     2.5300   5.2269   5.2471   5.2815   6.5623   7.5236   9.9485  11.4664

          k = 0.2500 0.0000 0.0000 (  4163 PWs)   bands (ev):

   -27.2807 -14.5907 -13.0695 -12.3373  -8.4336  -3.2932  -0.4068   0.9430
     2.6775   5.4201   5.4462   5.6900   6.7596   7.7153  10.1398  11.6227

          k = 0.2667 0.0000 0.0000 (  4174 PWs)   bands (ev):

   -27.1351 -14.9639 -12.9142 -12.5831  -8.2857  -3.2197  -0.7369   0.6957
     2.8376   5.6263   5.6588   6.0813   6.9692   7.9202  10.3420  11.5485

          k = 0.2833 0.0000 0.0000 (  4170 PWs)   bands (ev):

   -26.9804 -15.3332 -12.8341 -12.7493  -8.1296  -3.1555  -1.0664   0.4424
     3.0103   5.8455   5.8846   6.4431   7.1910   8.1381  10.5547  11.5200

          k = 0.3000 0.0000 0.0000 (  4172 PWs)   bands (ev):

   -26.8170 -15.6978 -13.0888 -12.5751  -7.9657  -3.1003  -1.3944   0.1843
     3.1953   6.0778   6.1236   6.7623   7.4246   8.3691  10.7773  11.5495

          k = 0.3167 0.0000 0.0000 (  4170 PWs)   bands (ev):

   -26.6448 -16.0572 -13.3461 -12.3914  -7.7946  -3.0539  -1.7199  -0.0775
     3.3926   6.3231   6.3757   7.0272   7.6700   8.6131  11.0091  11.6478

          k = 0.3333 0.0000 0.0000 (  4170 PWs)   bands (ev):

   -26.4641 -16.4106 -13.6049 -12.1986  -7.6165  -3.0160  -2.0421  -0.3416
     3.6020   6.5812   6.6408   7.2304   7.9268   8.8700  11.2492  11.8213

          k = 0.3500 0.0000 0.0000 (  4176 PWs)   bands (ev):

   -26.2750 -16.7578 -13.8639 -11.9966  -7.4320  -2.9867  -2.3604  -0.6070
     3.8231   6.8523   6.9189   7.3716   8.1947   9.1397  11.4964  12.0694

          k = 0.3667 0.0000 0.0000 (  4166 PWs)   bands (ev):

   -26.0777 -17.0981 -14.1220 -11.7858  -7.2417  -2.9660  -2.6741  -0.8727
     4.0556   7.1361   7.2097   7.4575   8.4733   9.4222  11.7492  12.3841

          k = 0.3833 0.0000 0.0000 (  4182 PWs)   bands (ev):

   -25.8725 -17.4315 -14.3784 -11.5663  -7.0461  -2.9834  -2.9532  -1.1375
     4.2992   7.4325   7.4992   7.5130   8.7620   9.7173  12.0052  12.7526

          k = 0.4000 0.0000 0.0000 (  4174 PWs)   bands (ev):

   -25.6595 -17.7574 -14.6319 -11.3382  -6.8458  -3.2860  -2.9502  -1.4006
     4.5534   7.5093   7.7415   7.8285   9.0601  10.0249  12.2614  13.1609

          k = 0.4167 0.0000 0.0000 (  4180 PWs)   bands (ev):

   -25.4392 -18.0757 -14.8816 -11.1020  -6.6417  -3.5833  -2.9554  -1.6610
     4.8175   7.4991   8.0629   8.1558   9.3665  10.3448  12.5135  13.5952

          k = 0.4333 0.0000 0.0000 (  4168 PWs)   bands (ev):

   -25.2119 -18.3861 -15.1265 -10.8578  -6.4344  -3.8743  -2.9694  -1.9179
     5.0909   7.4784   8.3964   8.4941   9.6799  10.6769  12.7555  14.0439

          k = 0.4500 0.0000 0.0000 (  4172 PWs)   bands (ev):

   -24.9780 -18.6884 -15.3657 -10.6061  -6.2250  -4.1589  -2.9921  -2.1703
     5.3727   7.4543   8.7419   8.8426   9.9984  11.0208  12.9800  14.2617

          k = 0.4667 0.0000 0.0000 (  4164 PWs)   bands (ev):

   -24.7381 -18.9825 -15.5981 -10.3473  -6.0143  -4.4366  -3.0234  -2.4174
     5.6618   7.4326   9.0989   9.1995  10.3195  11.3763  13.1785  14.2724

          k = 0.4833 0.0000 0.0000 (  4150 PWs)   bands (ev):

   -24.4928 -19.2683 -15.8226 -10.0819  -5.8035  -4.7073  -3.0630  -2.6582
     5.9567   7.4175   9.4672   9.5621  10.6397  11.7427  13.3449  14.2774

          k = 0.5000 0.0000 0.0000 (  4156 PWs)   bands (ev):

   -24.2429 -19.5456 -16.0383  -9.8105  -5.5938  -4.9708  -3.1108  -2.8918
     6.2558   7.4119   9.8461   9.9253  10.9553  12.1195  13.4800  14.2755

          k = 0.5167 0.0000 0.0000 (  4156 PWs)   bands (ev):

   -23.9893 -19.8143 -16.2438  -9.5341  -5.3864  -5.2267  -3.1663  -3.1172
     6.5566   7.4181  10.2349  10.2799  11.2631  12.5058  13.5961  14.2652

          k = 0.5333 0.0000 0.0000 (  4156 PWs)   bands (ev):

   -23.7331 -20.0743 -16.4377  -9.2535  -5.4752  -5.1829  -3.3330  -3.2290
     6.8559   7.4377  10.6061  10.6348  11.5649  12.9000  13.7163  14.2450

          k = 0.5500 0.0000 0.0000 (  4156 PWs)   bands (ev):

   -23.4757 -20.3256 -16.6186  -8.9703  -5.7158  -4.9847  -3.5378  -3.2984
     7.1494   7.4716  10.8801  11.0397  11.8737  13.2998  13.8659  14.2135

          k = 0.5667 0.0000 0.0000 (  4142 PWs)   bands (ev):

   -23.2188 -20.5681 -16.7846  -8.6861  -5.9485  -4.7936  -3.7298  -3.3737
     7.4311   7.5205  11.0665  11.4513  12.2111  13.7006  14.0618  14.1693

          k = 0.5833 0.0000 0.0000 (  4144 PWs)   bands (ev):

   -22.9644 -20.8016 -16.9335  -8.4033  -6.1733  -4.6114  -3.9066  -3.4543
     7.5845   7.6923  11.1542  11.8659  12.5901  14.0908  14.1112  14.3005

          k = 0.6000 0.0000 0.0000 (  4140 PWs)   bands (ev):

   -22.7150 -21.0262 -17.0628  -8.1251  -6.3899  -4.4401  -4.0649  -3.5393
     7.6639   7.9207  11.1590  12.2791  13.0059  14.0386  14.4296  14.5167

          k = 0.6167 0.0000 0.0000 (  4154 PWs)   bands (ev):

   -22.4737 -21.2418 -17.1697  -7.8562  -6.5983  -4.2819  -4.2005  -3.6280
     7.7583   8.0991  11.1104  12.6833  13.4434  13.9513  14.4517  14.5807

          k = 0.6333 0.0000 0.0000 (  4166 PWs)   bands (ev):

   -22.2439 -21.4485 -17.2506  -7.6023  -6.7983  -4.3076  -4.1388  -3.7195
     7.8675   8.2061  11.0414  13.0649  13.8501  13.8578  14.3145  14.5228

          k = 0.6500 0.0000 0.0000 (  4156 PWs)   bands (ev):

   -22.0294 -21.6460 -17.3020  -7.3715  -6.9900  -4.3784  -4.0133  -3.8130
     7.9909   8.2198  10.9846  13.3954  13.7363  14.0082  14.4179  14.5102

          k = 0.6667 0.0000 0.0000 (  4152 PWs)   bands (ev):

   -21.8344 -21.8344 -17.3199  -7.1731  -7.1731  -4.4041  -3.9076  -3.9076
     8.1281   8.1281  10.9633  13.6119  13.6119  13.9938  14.3637  14.8951

          k = 0.6583 0.0144 0.0000 (  4152 PWs)   bands (ev):

   -22.0138 -21.6628 -17.3009  -7.3477  -7.0165  -4.3758  -4.0026  -3.8242
     7.9374   8.2784  10.9836  13.4794  13.6436  14.0197  14.4212  14.6315

          k = 0.6500 0.0289 0.0000 (  4156 PWs)   bands (ev):

   -22.1840 -21.5176 -17.2423  -7.5137  -6.9079  -4.2878  -4.0971  -3.7652
     7.6697   8.4412  11.0367  13.3412  13.5416  14.0815  14.3813  14.5184

          k = 0.6417 0.0433 0.0000 (  4148 PWs)   bands (ev):

   -22.3451 -21.4006 -17.1429  -7.6710  -6.8472  -4.1905  -4.1409  -3.7328
     7.3516   8.6157  11.1094  13.2000  13.3894  14.1084  14.1446  14.5599

          k = 0.6333 0.0577 0.0000 (  4144 PWs)   bands (ev):

   -22.4971 -21.3117 -17.0035  -7.8196  -6.8284  -4.2820  -3.9421  -3.7288
     7.0065   8.8011  11.1913  13.0581  13.2216  13.9216  14.0244  14.5120

          k = 0.6250 0.0722 0.0000 (  4160 PWs)   bands (ev):

   -22.6398 -21.2493 -16.8266  -7.9595  -6.8419  -4.3710  -3.7547  -3.7020
     6.6524   8.9967  11.2758  12.9177  13.0500  13.7125  13.8775  14.3893

          k = 0.6167 0.0866 0.0000 (  4172 PWs)   bands (ev):

   -22.7734 -21.2102 -16.6164  -8.0904  -6.8779  -4.4569  -3.8110  -3.4317
     6.3025   9.2015  11.3596  12.7806  12.8796  13.5173  13.7186  14.2084

          k = 0.6083 0.1010 0.0000 (  4180 PWs)   bands (ev):

   -22.8978 -21.1906 -16.3781  -8.2126  -6.9282  -4.5391  -3.8979  -3.1409
     5.9662   9.4146  11.4402  12.6484  12.7120  13.3363  13.5650  13.9853

          k = 0.6000 0.1155 0.0000 (  4182 PWs)   bands (ev):

   -23.0130 -21.1863 -16.1175  -8.3258  -6.9866  -4.6171  -4.0144  -2.8376
     5.6500   9.6351  11.5157  12.5224  12.5474  13.1698  13.4228  13.7336

          k = 0.5917 0.1299 0.0000 (  4180 PWs)   bands (ev):

   -23.1190 -21.1936 -15.8402  -8.4301  -7.0486  -4.6904  -4.1586  -2.5285
     5.3582   9.8616  11.5838  12.3840  12.4036  13.0179  13.2948  13.4659

          k = 0.5833 0.1443 0.0000 (  4178 PWs)   bands (ev):

   -23.2157 -21.2089 -15.5522  -8.5254  -7.1109  -4.7587  -4.3273  -2.2192
     5.0937  10.0926  11.6427  12.2189  12.2930  12.8812  13.1824  13.1955

          k = 0.5750 0.1588 0.0000 (  4186 PWs)   bands (ev):

   -23.3033 -21.2294 -15.2593  -8.6117  -7.1714  -4.8216  -4.5160  -1.9151
     4.8577  10.3263  11.6904  12.0470  12.1913  12.7604  12.9367  13.0862

          k = 0.5667 0.1732 0.0000 (  4178 PWs)   bands (ev):

   -23.3816 -21.2526 -14.9675  -8.6890  -7.2283  -4.8787  -4.7194  -1.6212
     4.6505  10.5603  11.7261  11.8631  12.0990  12.6565  12.7041  13.0060

          k = 0.5583 0.1876 0.0000 (  4186 PWs)   bands (ev):

   -23.4508 -21.2768 -14.6830  -8.7572  -7.2805  -4.9305  -4.9297  -1.3428
     4.4717  10.7911  11.6651  11.7500  12.0167  12.5080  12.5714  12.9411

          k = 0.5500 0.2021 0.0000 (  4188 PWs)   bands (ev):

   -23.5107 -21.3002 -14.4125  -8.8164  -7.3270  -5.1417  -4.9744  -1.0850
     4.3203  11.0138  11.4585  11.7632  11.9447  12.3515  12.5079  12.8900

          k = 0.5417 0.2165 0.0000 (  4184 PWs)   bands (ev):

   -23.5614 -21.3218 -14.1633  -8.8666  -7.3672  -5.3442  -5.0126  -0.8535
     4.1951  11.2208  11.2550  11.7681  11.8833  12.2308  12.4705  12.8508

          k = 0.5333 0.2309 0.0000 (  4192 PWs)   bands (ev):

   -23.6029 -21.3406 -13.9433  -8.9076  -7.4007  -5.5286  -5.0441  -0.6538
     4.0949  11.0682  11.4013  11.7673  11.8328  12.1397  12.4660  12.8216

          k = 0.5250 0.2454 0.0000 (  4198 PWs)   bands (ev):

   -23.6352 -21.3559 -13.7605  -8.9395  -7.4271  -5.6855  -5.0687  -0.4914
     4.0184  10.9101  11.5430  11.7636  11.7934  12.0731  12.5000  12.8006

          k = 0.5167 0.2598 0.0000 (  4198 PWs)   bands (ev):

   -23.6582 -21.3671 -13.6228  -8.9623  -7.4461  -5.8056  -5.0864  -0.3713
     3.9645  10.7904  11.6380  11.7592  11.7653  12.0275  12.5689  12.7865

          k = 0.5083 0.2742 0.0000 (  4194 PWs)   bands (ev):

   -23.6720 -21.3740 -13.5371  -8.9760  -7.4575  -5.8811  -5.0970  -0.2974
     3.9325  10.7157  11.6889  11.7487  11.7559  12.0009  12.6476  12.7786

          k = 0.5000 0.2887 0.0000 (  4184 PWs)   bands (ev):

   -23.6766 -21.3764 -13.5080  -8.9805  -7.4614  -5.9070  -5.1006  -0.2725
     3.9219  10.6904  11.7042  11.7435  11.7546  11.9921  12.6857  12.7757

          k = 0.4833 0.2791 0.0000 (  4194 PWs)   bands (ev):

   -23.7300 -21.3122 -13.5016  -9.0651  -7.3667  -5.9427  -5.0709  -0.2660
     3.9289  10.6640  11.3286  11.4072  12.0404  12.3346  12.3671  13.1424

          k = 0.4667 0.2694 0.0000 (  4200 PWs)   bands (ev):

   -23.8751 -21.1350 -13.4822  -9.2748  -7.1270  -6.0373  -4.9942  -0.2467
     3.9493  10.5309  10.8892  11.0862  11.9224  12.2263  12.8444  12.9969

          k = 0.4500 0.2598 0.0000 (  4194 PWs)   bands (ev):

   -24.0810 -20.8755 -13.4501  -9.5439  -6.8079  -6.1692  -4.8916  -0.2146
     3.9811  10.2135  10.4374  10.9587  11.5164  12.2550  12.6740  12.7621

          k = 0.4333 0.2502 0.0000 (  4186 PWs)   bands (ev):

   -24.3208 -20.5608 -13.4052  -9.8361  -6.4459  -6.3229  -4.7779  -0.1698
     4.0211   9.8089   9.9873  10.9308  11.1066  12.1758  12.2428  12.4480

          k = 0.4167 0.2406 0.0000 (  4172 PWs)   bands (ev):

   -24.5773 -20.2084 -13.3478 -10.1347  -6.4898  -6.0580  -4.6607  -0.1124
     4.0648   9.3899   9.5457  10.7000  10.9204  11.8420  12.0282  12.0662

          k = 0.4000 0.2309 0.0000 (  4176 PWs)   bands (ev):

   -24.8399 -19.8290 -13.2781 -10.4318  -6.6649  -5.6523  -4.5438  -0.0426
     4.1067   8.9761   9.1163  10.3007  10.8707  11.5138  11.6287  11.8450

          k = 0.3833 0.2213 0.0000 (  4186 PWs)   bands (ev):

   -25.1025 -19.4290 -13.1963 -10.7235  -6.8450  -5.2332  -4.4295   0.0392
     4.1403   8.5737   8.7010   9.9112  10.6931  11.1469  11.3423  11.6511

          k = 0.3667 0.2117 0.0000 (  4190 PWs)   bands (ev):

   -25.3612 -19.0126 -13.1027 -11.0072  -7.0278  -4.8036  -4.3188   0.1328
     4.1587   8.1851   8.3011   9.5333  10.3926  10.6313  11.3204  11.4654

          k = 0.3500 0.2021 0.0000 (  4184 PWs)   bands (ev):

   -25.6136 -18.5826 -12.9978 -11.2817  -7.2114  -4.3656  -4.2128   0.2378
     4.1549   7.8117   7.9173   9.1681  10.0540  10.0909  11.3027  11.3619

          k = 0.3333 0.1925 0.0000 (  4180 PWs)   bands (ev):

   -25.8579 -18.1411 -12.8820 -11.5459  -7.3942  -4.1126  -3.9204   0.3537
     4.1229   7.4541   7.5499   8.8163   9.5336   9.7136  11.1745  11.4289

          k = 0.3167 0.1828 0.0000 (  4188 PWs)   bands (ev):

   -26.0932 -17.6898 -12.7557 -11.7992  -7.5748  -4.0187  -3.4700   0.4801
     4.0583   7.1128   7.1992   8.4785   8.9660   9.3825  11.0886  11.5081

          k = 0.3000 0.1732 0.0000 (  4180 PWs)   bands (ev):

   -26.3185 -17.2302 -12.6198 -12.0410  -7.7521  -3.9325  -3.0155   0.6162
     3.9592   6.7881   6.8653   8.1551   8.3939   9.0645  11.0493  11.4786

          k = 0.2833 0.1636 0.0000 (  4182 PWs)   bands (ev):

   -26.5333 -16.7634 -12.4749 -12.2710  -7.9250  -3.8555  -2.5584   0.7615
     3.8263   6.4804   6.5483   7.8222   7.8465   8.7616  11.0552  11.1881

          k = 0.2667 0.1540 0.0000 (  4180 PWs)   bands (ev):

   -26.7370 -16.2909 -12.4889 -12.3219  -8.0924  -3.7897  -2.1003   0.9149
     3.6634   6.1896   6.2484   7.2553   7.5531   8.4747  10.9010  11.1161

          k = 0.2500 0.1443 0.0000 (  4186 PWs)   bands (ev):

   -26.9295 -15.8140 -12.6945 -12.1618  -8.2534  -3.7372  -1.6428   1.0755
     3.4760   5.9161   5.9656   6.6971   7.2754   8.2042  10.6360  11.2092

          k = 0.2333 0.1347 0.0000 (  4184 PWs)   bands (ev):

   -27.1103 -15.3341 -12.8875 -11.9958  -8.4073  -3.7007  -1.1878   1.2422
     3.2714   5.6598   5.7002   6.1511   7.0137   7.9506  10.3843  11.3377

          k = 0.2167 0.1251 0.0000 (  4186 PWs)   bands (ev):

   -27.2793 -14.8526 -13.0678 -11.8252  -8.5533  -3.6832  -0.7375   1.4135
     3.0576   5.4208   5.4525   5.6206   6.7683   7.7140  10.1472  11.4936

          k = 0.2000 0.1155 0.0000 (  4186 PWs)   bands (ev):

   -27.4363 -14.3715 -13.2352 -11.6517  -8.6908  -3.6877  -0.2942   1.5881
     2.8425   5.1090   5.1992   5.2225   6.5396   7.4946   9.9254  11.3835

          k = 0.1833 0.1058 0.0000 (  4188 PWs)   bands (ev):

   -27.5812 -13.8929 -13.3896 -11.4770  -8.8192  -3.7174   0.1393   1.7639
     2.6339   4.6194   4.9948   5.0107   6.3279   7.2925   9.7192  11.2209

          k = 0.1667 0.0962 0.0000 (  4194 PWs)   bands (ev):

   -27.7137 -13.5308 -13.4191 -11.3031  -8.9379  -3.7746   0.5598   1.9391
     2.4385   4.1549   4.8071   4.8177   6.1333   7.1078   9.5290  11.0631

          k = 0.1500 0.0866 0.0000 (  4186 PWs)   bands (ev):

   -27.8339 -13.6589 -12.9533 -11.1324  -9.0466  -3.8607   0.9637   2.1113
     2.2620   3.7189   4.6347   4.6451   5.9560   6.9406   9.3552  10.9156

          k = 0.1333 0.0770 0.0000 (  4198 PWs)   bands (ev):

   -27.9417 -13.7737 -12.4992 -10.9675  -9.1448  -3.9755   1.3468   2.1082
     2.2778   3.3147   4.4779   4.4926   5.7963   6.7909   9.1980  10.7809

          k = 0.1167 0.0674 0.0000 (  4188 PWs)   bands (ev):

   -28.0369 -13.8752 -12.0616 -10.8112  -9.2321  -4.1163   1.7046   1.9790
     2.4359   2.9459   4.3383   4.3588   5.6545   6.6588   9.0580  10.6606

          k = 0.1000 0.0577 0.0000 (  4174 PWs)   bands (ev):

   -28.1195 -13.9632 -11.6464 -10.6665  -9.3082  -4.2780   1.8747   2.0319
     2.5824   2.6161   4.2168   4.2430   5.5306   6.5442   8.9354  10.5556

          k = 0.0833 0.0481 0.0000 (  4170 PWs)   bands (ev):

   -28.1895 -14.0378 -11.2617 -10.5366  -9.3729  -4.4524   1.7939   2.3231
     2.3289   2.7140   4.1134   4.1451   5.4251   6.4473   8.8307  10.4663

          k = 0.0667 0.0385 0.0000 (  4170 PWs)   bands (ev):

   -28.2468 -14.0989 -10.9175 -10.4248  -9.4259  -4.6283   1.7341   2.0878
     2.5723   2.8275   4.0286   4.0650   5.3382   6.3680   8.7443  10.3931

          k = 0.0500 0.0289 0.0000 (  4158 PWs)   bands (ev):

   -28.2914 -14.1464 -10.6263 -10.3340  -9.4669  -4.7915   1.6920   1.8963
     2.7738   2.9197   3.9623   4.0027   5.2702   6.3064   8.6766  10.3361

          k = 0.0333 0.0192 0.0000 (  4154 PWs)   bands (ev):

   -28.3232 -14.1804 -10.4025 -10.2670  -9.4959  -4.9257   1.6646   1.7572
     2.9222   2.9878   3.9149   3.9582   5.2214   6.2623   8.6280  10.2955

          k = 0.0167 0.0096 0.0000 (  4143 PWs)   bands (ev):

   -28.3424 -14.2007 -10.2607 -10.2259  -9.5130  -5.0147   1.6493   1.6727
     3.0131   3.0296   3.8864   3.9315   5.1920   6.2359   8.5987  10.2711

          k = 0.0000 0.0000 0.0000 (  4149 PWs)   bands (ev):

   -28.3487 -14.2075 -10.2121 -10.2121  -9.5186  -5.0459   1.6444   1.6444
     3.0437   3.0437   3.8768   3.9227   5.1822   6.2271   8.5889  10.2629

     Writing all to output data dir ../../../../tmp/gr-aa-2L.save/ :
     XML data file, pseudopotentials, collected wavefunctions

     init_run     :      0.37s CPU      0.64s WALL (       1 calls)
     electrons    :     86.43s CPU     48.58s WALL (       1 calls)

     Called by init_run:
     wfcinit      :      0.00s CPU      0.00s WALL (       1 calls)
     potinit      :      0.00s CPU      0.01s WALL (       1 calls)
     hinit0       :      0.34s CPU      0.61s WALL (       1 calls)

     Called by electrons:
     c_bands      :     86.42s CPU     48.58s WALL (       1 calls)
     v_of_rho     :      0.00s CPU      0.01s WALL (       1 calls)
     newd         :      0.00s CPU      0.01s WALL (       1 calls)

     Called by c_bands:
     init_us_2    :      0.04s CPU      0.02s WALL (      91 calls)
     cegterg      :     85.27s CPU     47.92s WALL (     471 calls)

     Called by *egterg:
     cdiaghg      :      6.46s CPU      3.51s WALL (    8837 calls)
     h_psi        :     61.83s CPU     35.12s WALL (    9308 calls)
     s_psi        :      1.69s CPU      0.93s WALL (    9308 calls)
     g_psi        :      0.76s CPU      0.40s WALL (    8746 calls)

     Called by h_psi:
     h_psi:calbec :      5.00s CPU      2.87s WALL (    9308 calls)
     vloc_psi     :     53.97s CPU     30.61s WALL (    9308 calls)
     add_vuspsi   :      2.32s CPU      1.31s WALL (    9308 calls)

     General routines
     calbec       :      4.93s CPU      2.82s WALL (    9308 calls)
     fft          :      0.32s CPU      0.59s WALL (      12 calls)
     fftw         :     46.74s CPU     26.61s WALL (  202566 calls)
     davcio       :      0.03s CPU      0.03s WALL (     182 calls)

     Parallel routines

     PWSCF        :   1m26.93s CPU     49.50s WALL


   This run was terminated on:  10:27:53  19Mar2025            

=------------------------------------------------------------------------------=
   JOB DONE.
=------------------------------------------------------------------------------=
