
     Program BANDS v.7.4.1 starts on 19Mar2025 at  5: 3:44 

     This program is part of the open-source Quantum ESPRESSO suite
     for quantum simulation of materials; please cite
         "P. Giannozzi et al., J. Phys.:Condens. Matter 21 395502 (2009);
         "P. Giannozzi et al., J. Phys.:Condens. Matter 29 465901 (2017);
         "P. Giannozzi et al., J. Chem. Phys. 152 154105 (2020);
          URL http://www.quantum-espresso.org", 
     in publications or presentations arising from this work. More details at
     http://www.quantum-espresso.org/quote

     Parallel version (MPI), running on     7 processors

     MPI processes distributed on     1 nodes
     R & G space division:  proc/nbgrp/npool/nimage =       7
     2269 MiB available memory on the printing compute node when the environment starts


     Reading xml data from directory:

     ../../../../tmp/gr-aa-2L.save/

     IMPORTANT: XC functional enforced from input :
     Exchange-correlation= PBE
                           (   1   4   3   4   0   0   0)
     Any further DFT definition will be discarded
     Please, verify this is what you really want


     Parallelization info
     --------------------
     sticks:   dense  smooth     PW     G-vecs:    dense   smooth      PW
     Min          51      51     15                 4783     4783     815
     Max          52      52     16                 4800     4800     838
     Sum         361     361    109                33523    33523    5791

     Using Slab Decomposition


     Check: negative core charge=   -0.000004

     negative rho (up, down):  3.923E-04 0.000E+00
     Reading collected, re-writing distributed wavefunctions
     high-symmetry point:  0.0000 0.0000 0.0000   x coordinate   0.0000
     high-symmetry point:  0.6667 0.0000 0.0000   x coordinate   0.6667
     high-symmetry point:  0.5000 0.2887 0.0000   x coordinate   1.0000
     high-symmetry point:  0.0000 0.0000 0.0000   x coordinate   1.5774

     Plottable bands (eV) written to file gr-aa-2L.bands.gnu
     Bands written to file gr-aa-2L.bands

 **************************************************************************

                    xk=(   0.00000,   0.00000,   0.00000  )

     point group C_6v (6mm) 
     there are  6 classes
     the character table:

       E     2C6   2C3   C2    3s_v  3s_d 
A_1    1.00  1.00  1.00  1.00  1.00  1.00
A_2    1.00  1.00  1.00  1.00 -1.00 -1.00
B_1    1.00 -1.00  1.00 -1.00  1.00 -1.00
B_2    1.00 -1.00  1.00 -1.00 -1.00  1.00
E_1    2.00  1.00 -1.00 -2.00  0.00  0.00
E_2    2.00 -1.00 -1.00  2.00  0.00  0.00

     the symmetry operations in each class and the name of the first element:

     E        1
                                                                 
     2C6      3    4
                                                                 
     2C3      5    6
                                                                 
     C2       2
                                                                 
     3s_v     8   12   11
                                                                 
     3s_d     7    9   10
                                                                 

     Band symmetry, C_6v (6mm)  point group:

     e(  1 -  1) =    -28.34873  eV     1   --> A_1            
     e(  2 -  2) =    -14.20753  eV     1   --> A_1            
     e(  3 -  4) =    -10.21209  eV     2   --> E_2            
     e(  5 -  5) =     -9.51863  eV     1   --> A_1            
     e(  6 -  6) =     -5.04592  eV     1   --> B_1            
     e(  7 -  8) =      1.64440  eV     2   --> E_1            
     e(  9 - 10) =      3.04371  eV     2   --> E_2            
     e( 11 - 11) =      3.87685  eV     1   --> A_1            
     e( 12 - 12) =      3.92265  eV     1   --> A_1            
     e( 13 - 13) =      5.18216  eV     1   --> A_1            
     e( 14 - 14) =      6.22713  eV     1   --> A_1            
     e( 15 - 15) =      8.58889  eV     1   --> A_1            
     e( 16 - 16) =     10.26293  eV     1   --> A_1            

 **************************************************************************

 **************************************************************************

                    xk=(   0.01667,   0.00000,   0.00000  )

     point group C_s (m)    
     there are  2 classes
     the character table:

       E     s    
A'     1.00  1.00
A''    1.00 -1.00

     the symmetry operations in each class and the name of the first element:

     E        1
                                                                 
     s        2
                                                                 

     Band symmetry, C_s (m)     point group:

     e(  1 -  1) =    -28.34395  eV     1   --> A'             
     e(  2 -  2) =    -14.20243  eV     1   --> A'             
     e(  3 -  3) =    -10.24857  eV     1   --> A''            
     e(  4 -  4) =    -10.22251  eV     1   --> A'             
     e(  5 -  5) =     -9.51443  eV     1   --> A'             
     e(  6 -  6) =     -5.02244  eV     1   --> A''            
     e(  7 -  7) =      1.64807  eV     1   --> A'             
     e(  8 -  8) =      1.66567  eV     1   --> A''            
     e(  9 -  9) =      3.02077  eV     1   --> A''            
     e( 10 - 10) =      3.03312  eV     1   --> A'             
     e( 11 - 11) =      3.88399  eV     1   --> A'             
     e( 12 - 12) =      3.92932  eV     1   --> A'             
     e( 13 - 13) =      5.18952  eV     1   --> A'             
     e( 14 - 14) =      6.23373  eV     1   --> A'             
     e( 15 - 15) =      8.59623  eV     1   --> A'             
     e( 16 - 16) =     10.26903  eV     1   --> A'             

 **************************************************************************

 **************************************************************************

                    xk=(   0.03333,   0.00000,   0.00000  )

     Band symmetry, C_s (m)     point group:

     e(  1 -  1) =    -28.32960  eV     1   --> A'             
     e(  2 -  2) =    -14.18714  eV     1   --> A'             
     e(  3 -  3) =    -10.35539  eV     1   --> A''            
     e(  4 -  4) =    -10.25395  eV     1   --> A'             
     e(  5 -  5) =     -9.50163  eV     1   --> A'             
     e(  6 -  6) =     -4.95457  eV     1   --> A''            
     e(  7 -  7) =      1.65911  eV     1   --> A'             
     e(  8 -  8) =      1.72945  eV     1   --> A''            
     e(  9 -  9) =      2.95261  eV     1   --> A''            
     e( 10 - 10) =      3.00136  eV     1   --> A'             
     e( 11 - 11) =      3.90540  eV     1   --> A'             
     e( 12 - 12) =      3.94933  eV     1   --> A'             
     e( 13 - 13) =      5.21157  eV     1   --> A'             
     e( 14 - 14) =      6.25354  eV     1   --> A'             
     e( 15 - 15) =      8.61823  eV     1   --> A'             
     e( 16 - 16) =     10.28733  eV     1   --> A'             

 **************************************************************************

 **************************************************************************

                    xk=(   0.05000,   0.00000,   0.00000  )

     Band symmetry, C_s (m)     point group:

     e(  1 -  1) =    -28.30570  eV     1   --> A'             
     e(  2 -  2) =    -14.16167  eV     1   --> A'             
     e(  3 -  3) =    -10.52533  eV     1   --> A''            
     e(  4 -  4) =    -10.30660  eV     1   --> A'             
     e(  5 -  5) =     -9.47967  eV     1   --> A'             
     e(  6 -  6) =     -4.84971  eV     1   --> A''            
     e(  7 -  7) =      1.67767  eV     1   --> A'             
     e(  8 -  8) =      1.83552  eV     1   --> A''            
     e(  9 -  9) =      2.84147  eV     1   --> A''            
     e( 10 - 10) =      2.94867  eV     1   --> A'             
     e( 11 - 11) =      3.94101  eV     1   --> A'             
     e( 12 - 12) =      3.98268  eV     1   --> A'             
     e( 13 - 13) =      5.24823  eV     1   --> A'             
     e( 14 - 14) =      6.28656  eV     1   --> A'             
     e( 15 - 15) =      8.65477  eV     1   --> A'             
     e( 16 - 16) =     10.31784  eV     1   --> A'             

 **************************************************************************

 **************************************************************************

                    xk=(   0.06667,   0.00000,   0.00000  )

     Band symmetry, C_s (m)     point group:

     e(  1 -  1) =    -28.27224  eV     1   --> A'             
     e(  2 -  2) =    -14.12601  eV     1   --> A'             
     e(  3 -  3) =    -10.74851  eV     1   --> A''            
     e(  4 -  4) =    -10.38058  eV     1   --> A'             
     e(  5 -  5) =     -9.44794  eV     1   --> A'             
     e(  6 -  6) =     -4.71760  eV     1   --> A''            
     e(  7 -  7) =      1.70436  eV     1   --> A'             
     e(  8 -  8) =      1.98356  eV     1   --> A''            
     e(  9 -  9) =      2.69074  eV     1   --> A''            
     e( 10 - 10) =      2.87534  eV     1   --> A'             
     e( 11 - 11) =      3.99075  eV     1   --> A'             
     e( 12 - 12) =      4.02939  eV     1   --> A'             
     e( 13 - 13) =      5.29935  eV     1   --> A'             
     e( 14 - 14) =      6.33280  eV     1   --> A'             
     e( 15 - 15) =      8.70569  eV     1   --> A'             
     e( 16 - 16) =     10.36060  eV     1   --> A'             

 **************************************************************************

 **************************************************************************

                    xk=(   0.08333,   0.00000,   0.00000  )

     Band symmetry, C_s (m)     point group:

     e(  1 -  1) =    -28.22924  eV     1   --> A'             
     e(  2 -  2) =    -14.08018  eV     1   --> A'             
     e(  3 -  3) =    -11.01468  eV     1   --> A''            
     e(  4 -  4) =    -10.47559  eV     1   --> A'             
     e(  5 -  5) =     -9.40602  eV     1   --> A'             
     e(  6 -  6) =     -4.56835  eV     1   --> A''            
     e(  7 -  7) =      1.73960  eV     1   --> A'             
     e(  8 -  8) =      2.17281  eV     1   --> A''            
     e(  9 -  9) =      2.50458  eV     1   --> A''            
     e( 10 - 10) =      2.78187  eV     1   --> A'             
     e( 11 - 11) =      4.05452  eV     1   --> A'             
     e( 12 - 12) =      4.08947  eV     1   --> A'             
     e( 13 - 13) =      5.36476  eV     1   --> A'             
     e( 14 - 14) =      6.39228  eV     1   --> A'             
     e( 15 - 15) =      8.77078  eV     1   --> A'             
     e( 16 - 16) =     10.41563  eV     1   --> A'             

 **************************************************************************

 **************************************************************************

                    xk=(   0.10000,   0.00000,   0.00000  )

     Band symmetry, C_s (m)     point group:

     e(  1 -  1) =    -28.17673  eV     1   --> A'             
     e(  2 -  2) =    -14.02421  eV     1   --> A'             
     e(  3 -  3) =    -11.31440  eV     1   --> A''            
     e(  4 -  4) =    -10.59100  eV     1   --> A'             
     e(  5 -  5) =     -9.35369  eV     1   --> A'             
     e(  6 -  6) =     -4.41093  eV     1   --> A''            
     e(  7 -  7) =      1.78396  eV     1   --> A'             
     e(  8 -  8) =      2.28753  eV     1   --> A''            
     e(  9 -  9) =      2.40197  eV     1   --> A''            
     e( 10 - 10) =      2.66890  eV     1   --> A'             
     e( 11 - 11) =      4.13220  eV     1   --> A'             
     e( 12 - 12) =      4.16294  eV     1   --> A'             
     e( 13 - 13) =      5.44425  eV     1   --> A'             
     e( 14 - 14) =      6.46500  eV     1   --> A'             
     e( 15 - 15) =      8.84979  eV     1   --> A'             
     e( 16 - 16) =     10.48297  eV     1   --> A'             

 **************************************************************************

 **************************************************************************

                    xk=(   0.11667,   0.00000,   0.00000  )

     Band symmetry, C_s (m)     point group:

     e(  1 -  1) =    -28.11471  eV     1   --> A'             
     e(  2 -  2) =    -13.95813  eV     1   --> A'             
     e(  3 -  3) =    -11.63964  eV     1   --> A''            
     e(  4 -  4) =    -10.72580  eV     1   --> A'             
     e(  5 -  5) =     -9.29093  eV     1   --> A'             
     e(  6 -  6) =     -4.25249  eV     1   --> A''            
     e(  7 -  7) =      1.83801  eV     1   --> A'             
     e(  8 -  8) =      2.04413  eV     1   --> A''            
     e(  9 -  9) =      2.53721  eV     1   --> A'             
     e( 10 - 10) =      2.66910  eV     1   --> A''            
     e( 11 - 11) =      4.22365  eV     1   --> A'             
     e( 12 - 12) =      4.24979  eV     1   --> A'             
     e( 13 - 13) =      5.53761  eV     1   --> A'             
     e( 14 - 14) =      6.55097  eV     1   --> A'             
     e( 15 - 15) =      8.94243  eV     1   --> A'             
     e( 16 - 16) =     10.56265  eV     1   --> A'             

 **************************************************************************

 **************************************************************************

                    xk=(   0.13333,   0.00000,   0.00000  )

     Band symmetry, C_s (m)     point group:

     e(  1 -  1) =    -28.04322  eV     1   --> A'             
     e(  2 -  2) =    -13.88194  eV     1   --> A'             
     e(  3 -  3) =    -11.98373  eV     1   --> A''            
     e(  4 -  4) =    -10.87881  eV     1   --> A'             
     e(  5 -  5) =     -9.21783  eV     1   --> A'             
     e(  6 -  6) =     -4.09820  eV     1   --> A''            
     e(  7 -  7) =      1.77882  eV     1   --> A''            
     e(  8 -  8) =      1.90237  eV     1   --> A'             
     e(  9 -  9) =      2.38771  eV     1   --> A'             
     e( 10 - 10) =      2.97154  eV     1   --> A''            
     e( 11 - 11) =      4.32875  eV     1   --> A'             
     e( 12 - 12) =      4.35006  eV     1   --> A'             
     e( 13 - 13) =      5.64462  eV     1   --> A'             
     e( 14 - 14) =      6.65020  eV     1   --> A'             
     e( 15 - 15) =      9.04843  eV     1   --> A'             
     e( 16 - 16) =     10.65469  eV     1   --> A'             

 **************************************************************************

 **************************************************************************

                    xk=(   0.15000,   0.00000,   0.00000  )

     Band symmetry, C_s (m)     point group:

     e(  1 -  1) =    -27.96228  eV     1   --> A'             
     e(  2 -  2) =    -13.79569  eV     1   --> A'             
     e(  3 -  3) =    -12.34147  eV     1   --> A''            
     e(  4 -  4) =    -11.04864  eV     1   --> A'             
     e(  5 -  5) =     -9.13456  eV     1   --> A'             
     e(  6 -  6) =     -3.95158  eV     1   --> A''            
     e(  7 -  7) =      1.49557  eV     1   --> A''            
     e(  8 -  8) =      1.97753  eV     1   --> A'             
     e(  9 -  9) =      2.22147  eV     1   --> A'             
     e( 10 - 10) =      3.30583  eV     1   --> A''            
     e( 11 - 11) =      4.44730  eV     1   --> A'             
     e( 12 - 12) =      4.46382  eV     1   --> A'             
     e( 13 - 13) =      5.76506  eV     1   --> A'             
     e( 14 - 14) =      6.76268  eV     1   --> A'             
     e( 15 - 15) =      9.16749  eV     1   --> A'             
     e( 16 - 16) =     10.75912  eV     1   --> A'             

 **************************************************************************

 **************************************************************************

                    xk=(   0.16667,   0.00000,   0.00000  )

     Band symmetry, C_s (m)     point group:

     e(  1 -  1) =    -27.87192  eV     1   --> A'             
     e(  2 -  2) =    -13.69941  eV     1   --> A'             
     e(  3 -  3) =    -12.70864  eV     1   --> A''            
     e(  4 -  4) =    -11.23382  eV     1   --> A'             
     e(  5 -  5) =     -9.04132  eV     1   --> A'             
     e(  6 -  6) =     -3.81468  eV     1   --> A''            
     e(  7 -  7) =      1.19808  eV     1   --> A''            
     e(  8 -  8) =      2.03967  eV     1   --> A'             
     e(  9 -  9) =      2.06400  eV     1   --> A'             
     e( 10 - 10) =      3.66784  eV     1   --> A''            
     e( 11 - 11) =      4.57901  eV     1   --> A'             
     e( 12 - 12) =      4.59130  eV     1   --> A'             
     e( 13 - 13) =      5.89874  eV     1   --> A'             
     e( 14 - 14) =      6.88841  eV     1   --> A'             
     e( 15 - 15) =      9.29931  eV     1   --> A'             
     e( 16 - 16) =     10.87594  eV     1   --> A'             

 **************************************************************************

 **************************************************************************

                    xk=(   0.18333,   0.00000,   0.00000  )

     Band symmetry, C_s (m)     point group:

     e(  1 -  1) =    -27.77220  eV     1   --> A'             
     e(  2 -  2) =    -13.59316  eV     1   --> A'             
     e(  3 -  3) =    -13.08197  eV     1   --> A''            
     e(  4 -  4) =    -11.43286  eV     1   --> A'             
     e(  5 -  5) =     -8.93832  eV     1   --> A'             
     e(  6 -  6) =     -3.68862  eV     1   --> A''            
     e(  7 -  7) =      0.88941  eV     1   --> A''            
     e(  8 -  8) =      1.84354  eV     1   --> A'             
     e(  9 -  9) =      2.16222  eV     1   --> A'             
     e( 10 - 10) =      4.05262  eV     1   --> A''            
     e( 11 - 11) =      4.72321  eV     1   --> A'             
     e( 12 - 12) =      4.73305  eV     1   --> A'             
     e( 13 - 13) =      6.04547  eV     1   --> A'             
     e( 14 - 14) =      7.02738  eV     1   --> A'             
     e( 15 - 15) =      9.44362  eV     1   --> A'             
     e( 16 - 16) =     11.00513  eV     1   --> A'             

 **************************************************************************

 **************************************************************************

                    xk=(   0.20000,   0.00000,   0.00000  )

     Band symmetry, C_s (m)     point group:

     e(  1 -  1) =    -27.66316  eV     1   --> A'             
     e(  2 -  2) =    -13.47699  eV     1   --> A'             
     e(  3 -  3) =    -13.45876  eV     1   --> A''            
     e(  4 -  4) =    -11.64425  eV     1   --> A'             
     e(  5 -  5) =     -8.82580  eV     1   --> A'             
     e(  6 -  6) =     -3.57363  eV     1   --> A''            
     e(  7 -  7) =      0.57240  eV     1   --> A''            
     e(  8 -  8) =      1.63442  eV     1   --> A'             
     e(  9 -  9) =      2.27245  eV     1   --> A'             
     e( 10 - 10) =      4.45439  eV     1   --> A''            
     e( 11 - 11) =      4.87903  eV     1   --> A'             
     e( 12 - 12) =      4.88989  eV     1   --> A'             
     e( 13 - 13) =      6.20507  eV     1   --> A'             
     e( 14 - 14) =      7.17958  eV     1   --> A'             
     e( 15 - 15) =      9.60012  eV     1   --> A'             
     e( 16 - 16) =     11.14665  eV     1   --> A'             

 **************************************************************************

 **************************************************************************

                    xk=(   0.21667,   0.00000,   0.00000  )

     Band symmetry, C_s (m)     point group:

     e(  1 -  1) =    -27.54485  eV     1   --> A'             
     e(  2 -  2) =    -13.83691  eV     1   --> A''            
     e(  3 -  3) =    -13.35092  eV     1   --> A'             
     e(  4 -  4) =    -11.86643  eV     1   --> A'             
     e(  5 -  5) =     -8.70400  eV     1   --> A'             
     e(  6 -  6) =     -3.46968  eV     1   --> A''            
     e(  7 -  7) =      0.24937  eV     1   --> A''            
     e(  8 -  8) =      1.41369  eV     1   --> A'             
     e(  9 -  9) =      2.39499  eV     1   --> A'             
     e( 10 - 10) =      4.86661  eV     1   --> A''            
     e( 11 - 11) =      5.04669  eV     1   --> A'             
     e( 12 - 12) =      5.06151  eV     1   --> A'             
     e( 13 - 13) =      6.37740  eV     1   --> A'             
     e( 14 - 14) =      7.34498  eV     1   --> A'             
     e( 15 - 15) =      9.76853  eV     1   --> A'             
     e( 16 - 16) =     11.30044  eV     1   --> A'             

 **************************************************************************

 **************************************************************************

                    xk=(   0.23333,   0.00000,   0.00000  )

     Band symmetry, C_s (m)     point group:

     e(  1 -  1) =    -27.41734  eV     1   --> A'             
     e(  2 -  2) =    -14.21470  eV     1   --> A''            
     e(  3 -  3) =    -13.21505  eV     1   --> A'             
     e(  4 -  4) =    -12.09792  eV     1   --> A'             
     e(  5 -  5) =     -8.57318  eV     1   --> A'             
     e(  6 -  6) =     -3.37633  eV     1   --> A''            
     e(  7 -  7) =     -0.07760  eV     1   --> A''            
     e(  8 -  8) =      1.18276  eV     1   --> A'             
     e(  9 -  9) =      2.53000  eV     1   --> A'             
     e( 10 - 10) =      5.22693  eV     1   --> A'             
     e( 11 - 11) =      5.24710  eV     1   --> A'             
     e( 12 - 12) =      5.28154  eV     1   --> A''            
     e( 13 - 13) =      6.56230  eV     1   --> A'             
     e( 14 - 14) =      7.52357  eV     1   --> A'             
     e( 15 - 15) =      9.94855  eV     1   --> A'             
     e( 16 - 16) =     11.46641  eV     1   --> A'             

 **************************************************************************

 **************************************************************************

                    xk=(   0.25000,   0.00000,   0.00000  )

     Band symmetry, C_s (m)     point group:

     e(  1 -  1) =    -27.28073  eV     1   --> A'             
     e(  2 -  2) =    -14.59075  eV     1   --> A''            
     e(  3 -  3) =    -13.06945  eV     1   --> A'             
     e(  4 -  4) =    -12.33728  eV     1   --> A'             
     e(  5 -  5) =     -8.43364  eV     1   --> A'             
     e(  6 -  6) =     -3.29317  eV     1   --> A''            
     e(  7 -  7) =     -0.40684  eV     1   --> A''            
     e(  8 -  8) =      0.94298  eV     1   --> A'             
     e(  9 -  9) =      2.67754  eV     1   --> A'             
     e( 10 - 10) =      5.42010  eV     1   --> A'             
     e( 11 - 11) =      5.44625  eV     1   --> A'             
     e( 12 - 12) =      5.69003  eV     1   --> A''            
     e( 13 - 13) =      6.75963  eV     1   --> A'             
     e( 14 - 14) =      7.71531  eV     1   --> A'             
     e( 15 - 15) =     10.13984  eV     1   --> A'             
     e( 16 - 16) =     11.62269  eV     1   -->   ?

 **************************************************************************

 **************************************************************************

                    xk=(   0.26667,   0.00000,   0.00000  )

     Band symmetry, C_s (m)     point group:

     e(  1 -  1) =    -27.13506  eV     1   --> A'             
     e(  2 -  2) =    -14.96390  eV     1   --> A''            
     e(  3 -  3) =    -12.91420  eV     1   --> A'             
     e(  4 -  4) =    -12.58311  eV     1   --> A'             
     e(  5 -  5) =     -8.28566  eV     1   --> A'             
     e(  6 -  6) =     -3.21971  eV     1   --> A''            
     e(  7 -  7) =     -0.73688  eV     1   --> A''            
     e(  8 -  8) =      0.69574  eV     1   --> A'             
     e(  9 -  9) =      2.83763  eV     1   --> A'             
     e( 10 - 10) =      5.62630  eV     1   --> A'             
     e( 11 - 11) =      5.65878  eV     1   --> A'             
     e( 12 - 12) =      6.08131  eV     1   --> A''            
     e( 13 - 13) =      6.96924  eV     1   --> A'             
     e( 14 - 14) =      7.92017  eV     1   --> A'             
     e( 15 - 15) =     10.34204  eV     1   --> A'             
     e( 16 - 16) =     11.54850  eV     1   --> A''            

 **************************************************************************

 **************************************************************************

                    xk=(   0.28333,   0.00000,   0.00000  )

     Band symmetry, C_s (m)     point group:

     e(  1 -  1) =    -26.98044  eV     1   --> A'             
     e(  2 -  2) =    -15.33318  eV     1   --> A''            
     e(  3 -  3) =    -12.83406  eV     1   --> A'             
     e(  4 -  4) =    -12.74934  eV     1   --> A'             
     e(  5 -  5) =     -8.12957  eV     1   --> A'             
     e(  6 -  6) =     -3.15554  eV     1   --> A''            
     e(  7 -  7) =     -1.06640  eV     1   --> A''            
     e(  8 -  8) =      0.44242  eV     1   --> A'             
     e(  9 -  9) =      3.01026  eV     1   --> A'             
     e( 10 - 10) =      5.84554  eV     1   --> A'             
     e( 11 - 11) =      5.88458  eV     1   --> A'             
     e( 12 - 12) =      6.44310  eV     1   --> A''            
     e( 13 - 13) =      7.19096  eV     1   --> A'             
     e( 14 - 14) =      8.13812  eV     1   --> A'             
     e( 15 - 15) =     10.55469  eV     1   --> A'             
     e( 16 - 16) =     11.52001  eV     1   --> A''            

 **************************************************************************

 **************************************************************************

                    xk=(   0.30000,   0.00000,   0.00000  )

     Band symmetry, C_s (m)     point group:

     e(  1 -  1) =    -26.81699  eV     1   --> A'             
     e(  2 -  2) =    -15.69782  eV     1   --> A''            
     e(  3 -  3) =    -13.08880  eV     1   --> A'             
     e(  4 -  4) =    -12.57506  eV     1   --> A'             
     e(  5 -  5) =     -7.96574  eV     1   --> A'             
     e(  6 -  6) =     -3.10033  eV     1   --> A''            
     e(  7 -  7) =     -1.39436  eV     1   --> A''            
     e(  8 -  8) =      0.18425  eV     1   --> A'             
     e(  9 -  9) =      3.19531  eV     1   --> A'             
     e( 10 - 10) =      6.07781  eV     1   --> A'             
     e( 11 - 11) =      6.12359  eV     1   --> A'             
     e( 12 - 12) =      6.76232  eV     1   --> A''            
     e( 13 - 13) =      7.42462  eV     1   --> A'             
     e( 14 - 14) =      8.36911  eV     1   --> A'             
     e( 15 - 15) =     10.77726  eV     1   --> A'             
     e( 16 - 16) =     11.54946  eV     1   --> A''            

 **************************************************************************

 **************************************************************************

                    xk=(   0.31667,   0.00000,   0.00000  )

     Band symmetry, C_s (m)     point group:

     e(  1 -  1) =    -26.64483  eV     1   --> A'             
     e(  2 -  2) =    -16.05716  eV     1   --> A''            
     e(  3 -  3) =    -13.34613  eV     1   --> A'             
     e(  4 -  4) =    -12.39142  eV     1   --> A'             
     e(  5 -  5) =     -7.79458  eV     1   --> A'             
     e(  6 -  6) =     -3.05387  eV     1   --> A''            
     e(  7 -  7) =     -1.71986  eV     1   --> A''            
     e(  8 -  8) =     -0.07747  eV     1   --> A'             
     e(  9 -  9) =      3.39260  eV     1   --> A'             
     e( 10 - 10) =      6.32306  eV     1   --> A'             
     e( 11 - 11) =      6.37571  eV     1   --> A'             
     e( 12 - 12) =      7.02721  eV     1   --> A''            
     e( 13 - 13) =      7.66998  eV     1   --> A'             
     e( 14 - 14) =      8.61307  eV     1   --> A'             
     e( 15 - 15) =     11.00906  eV     1   --> A'             
     e( 16 - 16) =     11.64777  eV     1   --> A''            

 **************************************************************************

 **************************************************************************

                    xk=(   0.33333,   0.00000,   0.00000  )

     Band symmetry, C_s (m)     point group:

     e(  1 -  1) =    -26.46412  eV     1   --> A'             
     e(  2 -  2) =    -16.41063  eV     1   --> A''            
     e(  3 -  3) =    -13.60486  eV     1   --> A'             
     e(  4 -  4) =    -12.19855  eV     1   --> A'             
     e(  5 -  5) =     -7.61651  eV     1   --> A'             
     e(  6 -  6) =     -3.01601  eV     1   --> A''            
     e(  7 -  7) =     -2.04209  eV     1   --> A''            
     e(  8 -  8) =     -0.34161  eV     1   --> A'             
     e(  9 -  9) =      3.60195  eV     1   --> A'             
     e( 10 - 10) =      6.58124  eV     1   --> A'             
     e( 11 - 11) =      6.64085  eV     1   --> A'             
     e( 12 - 12) =      7.23045  eV     1   --> A''            
     e( 13 - 13) =      7.92680  eV     1   --> A'             
     e( 14 - 14) =      8.86996  eV     1   --> A'             
     e( 15 - 15) =     11.24918  eV     1   --> A'             
     e( 16 - 16) =     11.82130  eV     1   --> A''            

 **************************************************************************

 **************************************************************************

                    xk=(   0.35000,   0.00000,   0.00000  )

     Band symmetry, C_s (m)     point group:

     e(  1 -  1) =    -26.27501  eV     1   --> A'             
     e(  2 -  2) =    -16.75778  eV     1   --> A''            
     e(  3 -  3) =    -13.86386  eV     1   --> A'             
     e(  4 -  4) =    -11.99662  eV     1   --> A'             
     e(  5 -  5) =     -7.43204  eV     1   --> A'             
     e(  6 -  6) =     -2.98671  eV     1   --> A''            
     e(  7 -  7) =     -2.36037  eV     1   --> A''            
     e(  8 -  8) =     -0.60705  eV     1   --> A'             
     e(  9 -  9) =      3.82308  eV     1   --> A'             
     e( 10 - 10) =      6.85227  eV     1   --> A'             
     e( 11 - 11) =      6.91889  eV     1   --> A'             
     e( 12 - 12) =      7.37165  eV     1   --> A''            
     e( 13 - 13) =      8.19472  eV     1   --> A'             
     e( 14 - 14) =      9.13968  eV     1   --> A'             
     e( 15 - 15) =     11.49643  eV     1   --> A'             
     e( 16 - 16) =     12.06937  eV     1   --> A''            

 **************************************************************************

 **************************************************************************

                    xk=(   0.36667,   0.00000,   0.00000  )

     Band symmetry, C_s (m)     point group:

     e(  1 -  1) =    -26.07772  eV     1   --> A'             
     e(  2 -  2) =    -17.09814  eV     1   --> A''            
     e(  3 -  3) =    -14.12203  eV     1   --> A'             
     e(  4 -  4) =    -11.78579  eV     1   --> A'             
     e(  5 -  5) =     -7.24169  eV     1   --> A'             
     e(  6 -  6) =     -2.96598  eV     1   --> A''            
     e(  7 -  7) =     -2.67406  eV     1   --> A''            
     e(  8 -  8) =     -0.87267  eV     1   --> A'             
     e(  9 -  9) =      4.05564  eV     1   --> A'             
     e( 10 - 10) =      7.13607  eV     1   --> A'             
     e( 11 - 11) =      7.20967  eV     1   --> A'             
     e( 12 - 12) =      7.45750  eV     1   --> A''            
     e( 13 - 13) =      8.47332  eV     1   --> A'             
     e( 14 - 14) =      9.42216  eV     1   --> A'             
     e( 15 - 15) =     11.74919  eV     1   --> A'             
     e( 16 - 16) =     12.38409  eV     1   --> A''            

 **************************************************************************

 **************************************************************************

                    xk=(   0.38333,   0.00000,   0.00000  )

     Band symmetry, C_s (m)     point group:

     e(  1 -  1) =    -25.87247  eV     1   --> A'             
     e(  2 -  2) =    -17.43146  eV     1   --> A''            
     e(  3 -  3) =    -14.37840  eV     1   --> A'             
     e(  4 -  4) =    -11.56625  eV     1   --> A'             
     e(  5 -  5) =     -7.04606  eV     1   --> A'             
     e(  6 -  6) =     -2.98340  eV     1   --> A''            
     e(  7 -  7) =     -2.95319  eV     1   --> A''            
     e(  8 -  8) =     -1.13752  eV     1   --> A'             
     e(  9 -  9) =      4.29921  eV     1   --> A'             
     e( 10 - 10) =      7.43252  eV     1   --> A'             
     e( 11 - 11) =      7.49918  eV     1   --> A''            
     e( 12 - 12) =      7.51297  eV     1   --> A'             
     e( 13 - 13) =      8.76202  eV     1   --> A'             
     e( 14 - 14) =      9.71727  eV     1   --> A'             
     e( 15 - 15) =     12.00523  eV     1   --> A'             
     e( 16 - 16) =     12.75263  eV     1   --> A''            

 **************************************************************************

 **************************************************************************

                    xk=(   0.40000,   0.00000,   0.00000  )

     Band symmetry, C_s (m)     point group:

     e(  1 -  1) =    -25.65952  eV     1   --> A'             
     e(  2 -  2) =    -17.75737  eV     1   --> A''            
     e(  3 -  3) =    -14.63191  eV     1   --> A'             
     e(  4 -  4) =    -11.33822  eV     1   --> A'             
     e(  5 -  5) =     -6.84581  eV     1   --> A'             
     e(  6 -  6) =     -3.28601  eV     1   --> A''            
     e(  7 -  7) =     -2.95018  eV     1   --> A''            
     e(  8 -  8) =     -1.40060  eV     1   --> A'             
     e(  9 -  9) =      4.55338  eV     1   --> A'             
     e( 10 - 10) =      7.50926  eV     1   --> A''            
     e( 11 - 11) =      7.74151  eV     1   --> A'             
     e( 12 - 12) =      7.82848  eV     1   --> A'             
     e( 13 - 13) =      9.06009  eV     1   --> A'             
     e( 14 - 14) =     10.02489  eV     1   --> A'             
     e( 15 - 15) =     12.26144  eV     1   --> A'             
     e( 16 - 16) =     13.16091  eV     1   --> A''            

 **************************************************************************

 **************************************************************************

                    xk=(   0.41667,   0.00000,   0.00000  )

     Band symmetry, C_s (m)     point group:

     e(  1 -  1) =    -25.43921  eV     1   --> A'             
     e(  2 -  2) =    -18.07566  eV     1   --> A''            
     e(  3 -  3) =    -14.88162  eV     1   --> A'             
     e(  4 -  4) =    -11.10198  eV     1   --> A'             
     e(  5 -  5) =     -6.64166  eV     1   --> A'             
     e(  6 -  6) =     -3.58329  eV     1   --> A''            
     e(  7 -  7) =     -2.95545  eV     1   --> A''            
     e(  8 -  8) =     -1.66103  eV     1   --> A'             
     e(  9 -  9) =      4.81753  eV     1   --> A'             
     e( 10 - 10) =      7.49915  eV     1   --> A''            
     e( 11 - 11) =      8.06287  eV     1   --> A'             
     e( 12 - 12) =      8.15576  eV     1   --> A'             
     e( 13 - 13) =      9.36651  eV     1   --> A'             
     e( 14 - 14) =     10.34484  eV     1   --> A'             
     e( 15 - 15) =     12.51350  eV     1   --> A'             
     e( 16 - 16) =     13.59524  eV     1   --> A''            

 **************************************************************************

 **************************************************************************

                    xk=(   0.43333,   0.00000,   0.00000  )

     Band symmetry, C_s (m)     point group:

     e(  1 -  1) =    -25.21189  eV     1   --> A'             
     e(  2 -  2) =    -18.38605  eV     1   --> A''            
     e(  3 -  3) =    -15.12653  eV     1   --> A'             
     e(  4 -  4) =    -10.85780  eV     1   --> A'             
     e(  5 -  5) =     -6.43443  eV     1   --> A'             
     e(  6 -  6) =     -3.87433  eV     1   --> A''            
     e(  7 -  7) =     -2.96944  eV     1   --> A''            
     e(  8 -  8) =     -1.91788  eV     1   --> A'             
     e(  9 -  9) =      5.09093  eV     1   --> A'             
     e( 10 - 10) =      7.47837  eV     1   --> A''            
     e( 11 - 11) =      8.39640  eV     1   --> A'             
     e( 12 - 12) =      8.49414  eV     1   --> A'             
     e( 13 - 13) =      9.67991  eV     1   --> A'             
     e( 14 - 14) =     10.67691  eV     1   --> A'             
     e( 15 - 15) =     12.75553  eV     1   --> A'             
     e( 16 - 16) =     14.04394  eV     1   -->   ?

 **************************************************************************

 **************************************************************************

                    xk=(   0.45000,   0.00000,   0.00000  )

     Band symmetry, C_s (m)     point group:

     e(  1 -  1) =    -24.97802  eV     1   --> A'             
     e(  2 -  2) =    -18.68840  eV     1   --> A''            
     e(  3 -  3) =    -15.36568  eV     1   --> A'             
     e(  4 -  4) =    -10.60610  eV     1   --> A'             
     e(  5 -  5) =     -6.22499  eV     1   --> A'             
     e(  6 -  6) =     -4.15888  eV     1   --> A''            
     e(  7 -  7) =     -2.99211  eV     1   --> A''            
     e(  8 -  8) =     -2.17029  eV     1   --> A'             
     e(  9 -  9) =      5.37269  eV     1   --> A'             
     e( 10 - 10) =      7.45432  eV     1   --> A''            
     e( 11 - 11) =      8.74186  eV     1   --> A'             
     e( 12 - 12) =      8.84261  eV     1   --> A'             
     e( 13 - 13) =      9.99840  eV     1   --> A'             
     e( 14 - 14) =     11.02084  eV     1   --> A'             
     e( 15 - 15) =     12.97998  eV     1   --> A'             
     e( 16 - 16) =     14.26173  eV     1   --> A''            

 **************************************************************************

 **************************************************************************

                    xk=(   0.46667,   0.00000,   0.00000  )

     Band symmetry, C_s (m)     point group:

     e(  1 -  1) =    -24.73811  eV     1   --> A'             
     e(  2 -  2) =    -18.98253  eV     1   --> A''            
     e(  3 -  3) =    -15.59806  eV     1   --> A'             
     e(  4 -  4) =    -10.34728  eV     1   --> A'             
     e(  5 -  5) =     -6.01432  eV     1   --> A'             
     e(  6 -  6) =     -4.43662  eV     1   --> A''            
     e(  7 -  7) =     -3.02338  eV     1   --> A''            
     e(  8 -  8) =     -2.41737  eV     1   --> A'             
     e(  9 -  9) =      5.66177  eV     1   --> A'             
     e( 10 - 10) =      7.43262  eV     1   --> A''            
     e( 11 - 11) =      9.09893  eV     1   --> A'             
     e( 12 - 12) =      9.19952  eV     1   --> A'             
     e( 13 - 13) =     10.31945  eV     1   --> A'             
     e( 14 - 14) =     11.37626  eV     1   --> A'             
     e( 15 - 15) =     13.17853  eV     1   --> A'             
     e( 16 - 16) =     14.27242  eV     1   --> A''            

 **************************************************************************

 **************************************************************************

                    xk=(   0.48333,   0.00000,   0.00000  )

     Band symmetry, C_s (m)     point group:

     e(  1 -  1) =    -24.49281  eV     1   --> A'             
     e(  2 -  2) =    -19.26830  eV     1   --> A''            
     e(  3 -  3) =    -15.82261  eV     1   --> A'             
     e(  4 -  4) =    -10.08186  eV     1   --> A'             
     e(  5 -  5) =     -5.80352  eV     1   --> A'             
     e(  6 -  6) =     -4.70729  eV     1   --> A''            
     e(  7 -  7) =     -3.06304  eV     1   --> A''            
     e(  8 -  8) =     -2.65821  eV     1   --> A'             
     e(  9 -  9) =      5.95671  eV     1   --> A'             
     e( 10 - 10) =      7.41746  eV     1   --> A''            
     e( 11 - 11) =      9.46721  eV     1   --> A'             
     e( 12 - 12) =      9.56206  eV     1   --> A'             
     e( 13 - 13) =     10.63972  eV     1   --> A'             
     e( 14 - 14) =     11.74271  eV     1   --> A'             
     e( 15 - 15) =     13.34491  eV     1   --> A'             
     e( 16 - 16) =     14.27744  eV     1   --> A''            

 **************************************************************************

 **************************************************************************

                    xk=(   0.50000,   0.00000,   0.00000  )

     Band symmetry, C_s (m)     point group:

     e(  1 -  1) =    -24.24290  eV     1   --> A'             
     e(  2 -  2) =    -19.54559  eV     1   --> A''            
     e(  3 -  3) =    -16.03827  eV     1   --> A'             
     e(  4 -  4) =     -9.81053  eV     1   --> A'             
     e(  5 -  5) =     -5.59378  eV     1   --> A'             
     e(  6 -  6) =     -4.97075  eV     1   --> A''            
     e(  7 -  7) =     -3.11081  eV     1   --> A''            
     e(  8 -  8) =     -2.89185  eV     1   --> A'             
     e(  9 -  9) =      6.25577  eV     1   --> A'             
     e( 10 - 10) =      7.41190  eV     1   --> A''            
     e( 11 - 11) =      9.84615  eV     1   --> A'             
     e( 12 - 12) =      9.92525  eV     1   --> A'             
     e( 13 - 13) =     10.95530  eV     1   --> A'             
     e( 14 - 14) =     12.11953  eV     1   --> A'             
     e( 15 - 15) =     13.47997  eV     1   --> A'             
     e( 16 - 16) =     14.27548  eV     1   --> A''            

 **************************************************************************

 **************************************************************************

                    xk=(   0.51667,   0.00000,   0.00000  )

     Band symmetry, C_s (m)     point group:

     e(  1 -  1) =    -23.98929  eV     1   --> A'             
     e(  2 -  2) =    -19.81431  eV     1   --> A''            
     e(  3 -  3) =    -16.24375  eV     1   --> A'             
     e(  4 -  4) =     -9.53407  eV     1   --> A'             
     e(  5 -  5) =     -5.38644  eV     1   --> A'             
     e(  6 -  6) =     -5.22674  eV     1   --> A''            
     e(  7 -  7) =     -3.16631  eV     1   --> A''            
     e(  8 -  8) =     -3.11718  eV     1   --> A'             
     e(  9 -  9) =      6.55657  eV     1   --> A'             
     e( 10 - 10) =      7.41812  eV     1   --> A''            
     e( 11 - 11) =     10.23486  eV     1   --> A'             
     e( 12 - 12) =     10.27991  eV     1   --> A'             
     e( 13 - 13) =     11.26310  eV     1   --> A'             
     e( 14 - 14) =     12.50578  eV     1   --> A'             
     e( 15 - 15) =     13.59612  eV     1   --> A'             
     e( 16 - 16) =     14.26516  eV     1   --> A''            

 **************************************************************************

 **************************************************************************

                    xk=(   0.53333,   0.00000,   0.00000  )

     Band symmetry, C_s (m)     point group:

     e(  1 -  1) =    -23.73307  eV     1   --> A'             
     e(  2 -  2) =    -20.07435  eV     1   --> A''            
     e(  3 -  3) =    -16.43773  eV     1   --> A'             
     e(  4 -  4) =     -9.25353  eV     1   --> A'             
     e(  5 -  5) =     -5.47516  eV     1   --> A''            
     e(  6 -  6) =     -5.18287  eV     1   --> A'             
     e(  7 -  7) =     -3.33301  eV     1   --> A'             
     e(  8 -  8) =     -3.22902  eV     1   --> A''            
     e(  9 -  9) =      6.85590  eV     1   --> A'             
     e( 10 - 10) =      7.43768  eV     1   --> A''            
     e( 11 - 11) =     10.60612  eV     1   --> A'             
     e( 12 - 12) =     10.63481  eV     1   --> A'             
     e( 13 - 13) =     11.56493  eV     1   --> A'             
     e( 14 - 14) =     12.90002  eV     1   --> A'             
     e( 15 - 15) =     13.71625  eV     1   --> A'             
     e( 16 - 16) =     14.24499  eV     1   --> A''            

 **************************************************************************

 **************************************************************************

                    xk=(   0.55000,   0.00000,   0.00000  )

     Band symmetry, C_s (m)     point group:

     e(  1 -  1) =    -23.47568  eV     1   --> A'             
     e(  2 -  2) =    -20.32563  eV     1   --> A''            
     e(  3 -  3) =    -16.61860  eV     1   --> A'             
     e(  4 -  4) =     -8.97027  eV     1   --> A'             
     e(  5 -  5) =     -5.71579  eV     1   --> A''            
     e(  6 -  6) =     -4.98469  eV     1   --> A'             
     e(  7 -  7) =     -3.53784  eV     1   --> A'             
     e(  8 -  8) =     -3.29837  eV     1   --> A''            
     e(  9 -  9) =      7.14945  eV     1   --> A'             
     e( 10 - 10) =      7.47161  eV     1   --> A''            
     e( 11 - 11) =     10.88009  eV     1   --> A'             
     e( 12 - 12) =     11.03970  eV     1   --> A'             
     e( 13 - 13) =     11.87365  eV     1   --> A'             
     e( 14 - 14) =     13.29984  eV     1   --> A'             
     e( 15 - 15) =     13.86588  eV     1   --> A'             
     e( 16 - 16) =     14.21350  eV     1   --> A''            

 **************************************************************************

 **************************************************************************

                    xk=(   0.56667,   0.00000,   0.00000  )

     Band symmetry, C_s (m)     point group:

     e(  1 -  1) =    -23.21876  eV     1   --> A'             
     e(  2 -  2) =    -20.56805  eV     1   --> A''            
     e(  3 -  3) =    -16.78456  eV     1   --> A'             
     e(  4 -  4) =     -8.68606  eV     1   --> A'             
     e(  5 -  5) =     -5.94853  eV     1   --> A''            
     e(  6 -  6) =     -4.79358  eV     1   --> A'             
     e(  7 -  7) =     -3.72982  eV     1   --> A'             
     e(  8 -  8) =     -3.37369  eV     1   --> A''            
     e(  9 -  9) =      7.43113  eV     1   --> A'             
     e( 10 - 10) =      7.52047  eV     1   --> A''            
     e( 11 - 11) =     11.06646  eV     1   --> A'             
     e( 12 - 12) =     11.45128  eV     1   --> A'             
     e( 13 - 13) =     12.21112  eV     1   --> A'             
     e( 14 - 14) =     13.70058  eV     1   --> A'             
     e( 15 - 15) =     14.06181  eV     1   --> A'             
     e( 16 - 16) =     14.16931  eV     1   --> A''            

 **************************************************************************

 **************************************************************************

                    xk=(   0.58333,   0.00000,   0.00000  )

     Band symmetry, C_s (m)     point group:

     e(  1 -  1) =    -22.96437  eV     1   --> A'             
     e(  2 -  2) =    -20.80160  eV     1   --> A''            
     e(  3 -  3) =    -16.93346  eV     1   --> A'             
     e(  4 -  4) =     -8.40327  eV     1   --> A'             
     e(  5 -  5) =     -6.17329  eV     1   --> A''            
     e(  6 -  6) =     -4.61139  eV     1   --> A'             
     e(  7 -  7) =     -3.90657  eV     1   --> A'             
     e(  8 -  8) =     -3.45426  eV     1   --> A''            
     e(  9 -  9) =      7.58454  eV     1   --> A''            
     e( 10 - 10) =      7.69232  eV     1   --> A'             
     e( 11 - 11) =     11.15417  eV     1   --> A'             
     e( 12 - 12) =     11.86592  eV     1   --> A'             
     e( 13 - 13) =     12.59014  eV     1   --> A'             
     e( 14 - 14) =     14.09076  eV     1   --> A'             
     e( 15 - 15) =     14.11119  eV     1   --> A''            
     e( 16 - 16) =     14.30053  eV     1   --> A'             

 **************************************************************************

 **************************************************************************

                    xk=(   0.60000,   0.00000,   0.00000  )

     Band symmetry, C_s (m)     point group:

     e(  1 -  1) =    -22.71504  eV     1   --> A'             
     e(  2 -  2) =    -21.02621  eV     1   --> A''            
     e(  3 -  3) =    -17.06281  eV     1   --> A'             
     e(  4 -  4) =     -8.12514  eV     1   --> A'             
     e(  5 -  5) =     -6.38988  eV     1   --> A''            
     e(  6 -  6) =     -4.44011  eV     1   --> A'             
     e(  7 -  7) =     -4.06490  eV     1   --> A'             
     e(  8 -  8) =     -3.53931  eV     1   --> A''            
     e(  9 -  9) =      7.66392  eV     1   --> A''            
     e( 10 - 10) =      7.92066  eV     1   --> A'             
     e( 11 - 11) =     11.15902  eV     1   --> A'             
     e( 12 - 12) =     12.27910  eV     1   --> A'             
     e( 13 - 13) =     13.00593  eV     1   --> A'             
     e( 14 - 14) =     14.03856  eV     1   --> A''            
     e( 15 - 15) =     14.42956  eV     1   --> A'             
     e( 16 - 16) =     14.51673  eV     1   --> A'             

 **************************************************************************

 **************************************************************************

                    xk=(   0.61667,   0.00000,   0.00000  )

     Band symmetry, C_s (m)     point group:

     e(  1 -  1) =    -22.47373  eV     1   --> A'             
     e(  2 -  2) =    -21.24185  eV     1   --> A''            
     e(  3 -  3) =    -17.16965  eV     1   --> A'             
     e(  4 -  4) =     -7.85616  eV     1   --> A'             
     e(  5 -  5) =     -6.59826  eV     1   --> A''            
     e(  6 -  6) =     -4.28185  eV     1   --> A'             
     e(  7 -  7) =     -4.20050  eV     1   --> A'             
     e(  8 -  8) =     -3.62800  eV     1   --> A''            
     e(  9 -  9) =      7.75832  eV     1   --> A''            
     e( 10 - 10) =      8.09912  eV     1   --> A'             
     e( 11 - 11) =     11.11037  eV     1   --> A'             
     e( 12 - 12) =     12.68333  eV     1   --> A'             
     e( 13 - 13) =     13.44345  eV     1   --> A'             
     e( 14 - 14) =     13.95129  eV     1   --> A''            
     e( 15 - 15) =     14.45171  eV     1   --> A'             
     e( 16 - 16) =     14.58065  eV     1   --> A'             

 **************************************************************************

 **************************************************************************

                    xk=(   0.63333,   0.00000,   0.00000  )

     Band symmetry, C_s (m)     point group:

     e(  1 -  1) =    -22.24390  eV     1   --> A'             
     e(  2 -  2) =    -21.44846  eV     1   --> A''            
     e(  3 -  3) =    -17.25060  eV     1   --> A'             
     e(  4 -  4) =     -7.60233  eV     1   --> A'             
     e(  5 -  5) =     -6.79833  eV     1   --> A''            
     e(  6 -  6) =     -4.30755  eV     1   --> A'             
     e(  7 -  7) =     -4.13881  eV     1   --> A'             
     e(  8 -  8) =     -3.71952  eV     1   --> A''            
     e(  9 -  9) =      7.86746  eV     1   --> A''            
     e( 10 - 10) =      8.20608  eV     1   --> A'             
     e( 11 - 11) =     11.04142  eV     1   --> A'             
     e( 12 - 12) =     13.06490  eV     1   --> A'             
     e( 13 - 13) =     13.85007  eV     1   --> A''            
     e( 14 - 14) =     13.85778  eV     1   --> A'             
     e( 15 - 15) =     14.31454  eV     1   --> A'             
     e( 16 - 16) =     14.52275  eV     1   --> A'             

 **************************************************************************

 **************************************************************************

                    xk=(   0.65000,   0.00000,   0.00000  )

     Band symmetry, C_s (m)     point group:

     e(  1 -  1) =    -22.02944  eV     1   --> A'             
     e(  2 -  2) =    -21.64600  eV     1   --> A''            
     e(  3 -  3) =    -17.30196  eV     1   --> A'             
     e(  4 -  4) =     -7.37151  eV     1   --> A'             
     e(  5 -  5) =     -6.98997  eV     1   --> A''            
     e(  6 -  6) =     -4.37843  eV     1   --> A'             
     e(  7 -  7) =     -4.01327  eV     1   --> A'             
     e(  8 -  8) =     -3.81300  eV     1   --> A''            
     e(  9 -  9) =      7.99091  eV     1   --> A''            
     e( 10 - 10) =      8.21977  eV     1   --> A'             
     e( 11 - 11) =     10.98461  eV     1   --> A'             
     e( 12 - 12) =     13.39539  eV     1   --> A'             
     e( 13 - 13) =     13.73629  eV     1   --> A''            
     e( 14 - 14) =     14.00815  eV     1   --> A'             
     e( 15 - 15) =     14.41791  eV     1   --> A'             
     e( 16 - 16) =     14.51018  eV     1   --> A'             

 **************************************************************************

 **************************************************************************

                    xk=(   0.66667,   0.00000,   0.00000  )

     point group C_3v (3m)  
     there are  3 classes
     the character table:

       E     2C3   3s_v 
A_1    1.00  1.00  1.00
A_2    1.00  1.00 -1.00
E      2.00 -1.00  0.00

     the symmetry operations in each class and the name of the first element:

     E        1
                                                                 
     2C3      2    3
                                                                 
     3s_v     4    6    5
                                                                 

     Band symmetry, C_3v (3m)   point group:

     e(  1 -  2) =    -21.83445  eV     2   --> E    L_3       
     e(  3 -  3) =    -17.31988  eV     1   --> A_1  L_1       
     e(  4 -  5) =     -7.17313  eV     2   --> E    L_3       
     e(  6 -  6) =     -4.40412  eV     1   --> A_1  L_1       
     e(  7 -  8) =     -3.90761  eV     2   --> E    L_3       
     e(  9 - 10) =      8.12809  eV     2   --> E    L_3       
     e( 11 - 11) =     10.96330  eV     1   --> A_1  L_1       
     e( 12 - 13) =     13.61194  eV     2   --> E    L_3       
     e( 14 - 14) =     13.99383  eV     1   --> A_1  L_1       
     e( 15 - 15) =     14.36366  eV     1   --> A_1  L_1       
     e( 16 - 16) =     14.89509  eV     1   -->   ?

 **************************************************************************

 **************************************************************************

                    xk=(   0.65833,   0.01443,   0.00000  )

     point group C_s (m)    
     there are  2 classes
     the character table:

       E     s    
A'     1.00  1.00
A''    1.00 -1.00

     the symmetry operations in each class and the name of the first element:

     E        1
                                                                 
     s        2
                                                                 

     Band symmetry, C_s (m)     point group:

     e(  1 -  1) =    -22.01381  eV     1   --> A''            
     e(  2 -  2) =    -21.66281  eV     1   --> A'             
     e(  3 -  3) =    -17.30088  eV     1   --> A'             
     e(  4 -  4) =     -7.34774  eV     1   --> A''            
     e(  5 -  5) =     -7.01653  eV     1   --> A'             
     e(  6 -  6) =     -4.37578  eV     1   --> A'             
     e(  7 -  7) =     -4.00258  eV     1   --> A''            
     e(  8 -  8) =     -3.82418  eV     1   --> A'             
     e(  9 -  9) =      7.93742  eV     1   --> A'             
     e( 10 - 10) =      8.27840  eV     1   --> A''            
     e( 11 - 11) =     10.98357  eV     1   --> A'             
     e( 12 - 12) =     13.47937  eV     1   --> A''            
     e( 13 - 13) =     13.64356  eV     1   --> A'             
     e( 14 - 14) =     14.01967  eV     1   --> A'             
     e( 15 - 15) =     14.42116  eV     1   --> A'             
     e( 16 - 16) =     14.63151  eV     1   --> A''            

 **************************************************************************

 **************************************************************************

                    xk=(   0.65000,   0.02887,   0.00000  )

     Band symmetry, C_s (m)     point group:

     e(  1 -  1) =    -22.18404  eV     1   --> A''            
     e(  2 -  2) =    -21.51760  eV     1   --> A'             
     e(  3 -  3) =    -17.24228  eV     1   --> A'             
     e(  4 -  4) =     -7.51374  eV     1   --> A''            
     e(  5 -  5) =     -6.90786  eV     1   --> A'             
     e(  6 -  6) =     -4.28784  eV     1   --> A'             
     e(  7 -  7) =     -4.09713  eV     1   --> A''            
     e(  8 -  8) =     -3.76522  eV     1   --> A'             
     e(  9 -  9) =      7.66969  eV     1   --> A'             
     e( 10 - 10) =      8.44115  eV     1   --> A''            
     e( 11 - 11) =     11.03667  eV     1   --> A'             
     e( 12 - 12) =     13.34121  eV     1   --> A''            
     e( 13 - 13) =     13.54157  eV     1   --> A'             
     e( 14 - 14) =     14.08153  eV     1   --> A'             
     e( 15 - 15) =     14.38129  eV     1   --> A''            
     e( 16 - 16) =     14.51842  eV     1   --> A'             

 **************************************************************************

 **************************************************************************

                    xk=(   0.64167,   0.04330,   0.00000  )

     Band symmetry, C_s (m)     point group:

     e(  1 -  1) =    -22.34513  eV     1   --> A''            
     e(  2 -  2) =    -21.40057  eV     1   --> A'             
     e(  3 -  3) =    -17.14289  eV     1   --> A'             
     e(  4 -  4) =     -7.67105  eV     1   --> A''            
     e(  5 -  5) =     -6.84722  eV     1   --> A'             
     e(  6 -  6) =     -4.19050  eV     1   --> A''            
     e(  7 -  7) =     -4.14093  eV     1   --> A'             
     e(  8 -  8) =     -3.73284  eV     1   --> A'             
     e(  9 -  9) =      7.35155  eV     1   --> A'             
     e( 10 - 10) =      8.61569  eV     1   --> A''            
     e( 11 - 11) =     11.10941  eV     1   --> A'             
     e( 12 - 12) =     13.19999  eV     1   --> A''            
     e( 13 - 13) =     13.38943  eV     1   --> A'             
     e( 14 - 14) =     14.10837  eV     1   --> A'             
     e( 15 - 15) =     14.14461  eV     1   --> A''            
     e( 16 - 16) =     14.55988  eV     1   --> A'             

 **************************************************************************

 **************************************************************************

                    xk=(   0.63333,   0.05774,   0.00000  )

     Band symmetry, C_s (m)     point group:

     e(  1 -  1) =    -22.49706  eV     1   --> A''            
     e(  2 -  2) =    -21.31170  eV     1   --> A'             
     e(  3 -  3) =    -17.00346  eV     1   --> A'             
     e(  4 -  4) =     -7.81964  eV     1   --> A''            
     e(  5 -  5) =     -6.82842  eV     1   --> A'             
     e(  6 -  6) =     -4.28201  eV     1   --> A''            
     e(  7 -  7) =     -3.94212  eV     1   --> A'             
     e(  8 -  8) =     -3.72884  eV     1   --> A'             
     e(  9 -  9) =      7.00645  eV     1   --> A'             
     e( 10 - 10) =      8.80112  eV     1   --> A''            
     e( 11 - 11) =     11.19126  eV     1   --> A'             
     e( 12 - 12) =     13.05811  eV     1   --> A''            
     e( 13 - 13) =     13.22156  eV     1   --> A'             
     e( 14 - 14) =     13.92163  eV     1   --> A''            
     e( 15 - 15) =     14.02436  eV     1   --> A'             
     e( 16 - 16) =     14.51203  eV     1   --> A'             

 **************************************************************************

 **************************************************************************

                    xk=(   0.62500,   0.07217,   0.00000  )

     Band symmetry, C_s (m)     point group:

     e(  1 -  1) =    -22.63983  eV     1   --> A''            
     e(  2 -  2) =    -21.24928  eV     1   --> A'             
     e(  3 -  3) =    -16.82659  eV     1   --> A'             
     e(  4 -  4) =     -7.95945  eV     1   --> A''            
     e(  5 -  5) =     -6.84192  eV     1   --> A'             
     e(  6 -  6) =     -4.37102  eV     1   --> A''            
     e(  7 -  7) =     -3.75470  eV     1   --> A'             
     e(  8 -  8) =     -3.70195  eV     1   --> A'             
     e(  9 -  9) =      6.65239  eV     1   --> A'             
     e( 10 - 10) =      8.99667  eV     1   --> A''            
     e( 11 - 11) =     11.27584  eV     1   --> A'             
     e( 12 - 12) =     12.91770  eV     1   --> A''            
     e( 13 - 13) =     13.05002  eV     1   --> A'             
     e( 14 - 14) =     13.71249  eV     1   --> A''            
     e( 15 - 15) =     13.87752  eV     1   --> A'             
     e( 16 - 16) =     14.38931  eV     1   --> A'             

 **************************************************************************

 **************************************************************************

                    xk=(   0.61667,   0.08660,   0.00000  )

     Band symmetry, C_s (m)     point group:

     e(  1 -  1) =    -22.77341  eV     1   --> A''            
     e(  2 -  2) =    -21.21020  eV     1   --> A'             
     e(  3 -  3) =    -16.61642  eV     1   --> A'             
     e(  4 -  4) =     -8.09044  eV     1   --> A''            
     e(  5 -  5) =     -6.87791  eV     1   --> A'             
     e(  6 -  6) =     -4.45689  eV     1   --> A''            
     e(  7 -  7) =     -3.81098  eV     1   --> A'             
     e(  8 -  8) =     -3.43171  eV     1   --> A'             
     e(  9 -  9) =      6.30250  eV     1   --> A'             
     e( 10 - 10) =      9.20150  eV     1   --> A''            
     e( 11 - 11) =     11.35960  eV     1   --> A'             
     e( 12 - 12) =     12.78061  eV     1   --> A''            
     e( 13 - 13) =     12.87959  eV     1   --> A'             
     e( 14 - 14) =     13.51733  eV     1   --> A''            
     e( 15 - 15) =     13.71863  eV     1   --> A'             
     e( 16 - 16) =     14.20839  eV     1   --> A'             

 **************************************************************************

 **************************************************************************

                    xk=(   0.60833,   0.10104,   0.00000  )

     Band symmetry, C_s (m)     point group:

     e(  1 -  1) =    -22.89781  eV     1   --> A''            
     e(  2 -  2) =    -21.19058  eV     1   --> A'             
     e(  3 -  3) =    -16.37815  eV     1   --> A'             
     e(  4 -  4) =     -8.21257  eV     1   --> A''            
     e(  5 -  5) =     -6.92820  eV     1   --> A'             
     e(  6 -  6) =     -4.53910  eV     1   --> A''            
     e(  7 -  7) =     -3.89787  eV     1   --> A'             
     e(  8 -  8) =     -3.14091  eV     1   --> A'             
     e(  9 -  9) =      5.96616  eV     1   --> A'             
     e( 10 - 10) =      9.41464  eV     1   --> A''            
     e( 11 - 11) =     11.44021  eV     1   --> A'             
     e( 12 - 12) =     12.64840  eV     1   --> A''            
     e( 13 - 13) =     12.71203  eV     1   --> A'             
     e( 14 - 14) =     13.33634  eV     1   --> A''            
     e( 15 - 15) =     13.56500  eV     1   --> A'             
     e( 16 - 16) =     13.98533  eV     1   --> A'             

 **************************************************************************

 **************************************************************************

                    xk=(   0.60000,   0.11547,   0.00000  )

     Band symmetry, C_s (m)     point group:

     e(  1 -  1) =    -23.01299  eV     1   --> A''            
     e(  2 -  2) =    -21.18632  eV     1   --> A'             
     e(  3 -  3) =    -16.11746  eV     1   --> A'             
     e(  4 -  4) =     -8.32579  eV     1   --> A''            
     e(  5 -  5) =     -6.98658  eV     1   --> A'             
     e(  6 -  6) =     -4.61709  eV     1   --> A''            
     e(  7 -  7) =     -4.01441  eV     1   --> A'             
     e(  8 -  8) =     -2.83762  eV     1   --> A'             
     e(  9 -  9) =      5.64995  eV     1   --> A'             
     e( 10 - 10) =      9.63510  eV     1   --> A''            
     e( 11 - 11) =     11.51566  eV     1   --> A'             
     e( 12 - 12) =     12.52239  eV     1   --> A''            
     e( 13 - 13) =     12.54735  eV     1   --> A'             
     e( 14 - 14) =     13.16976  eV     1   --> A''            
     e( 15 - 15) =     13.42280  eV     1   --> A'             
     e( 16 - 16) =     13.73365  eV     1   --> A'             

 **************************************************************************

 **************************************************************************

                    xk=(   0.59167,   0.12990,   0.00000  )

     Band symmetry, C_s (m)     point group:

     e(  1 -  1) =    -23.11896  eV     1   --> A''            
     e(  2 -  2) =    -21.19356  eV     1   --> A'             
     e(  3 -  3) =    -15.84022  eV     1   --> A'             
     e(  4 -  4) =     -8.43007  eV     1   --> A''            
     e(  5 -  5) =     -7.04856  eV     1   --> A'             
     e(  6 -  6) =     -4.69045  eV     1   --> A''            
     e(  7 -  7) =     -4.15858  eV     1   --> A'             
     e(  8 -  8) =     -2.52847  eV     1   --> A'             
     e(  9 -  9) =      5.35823  eV     1   --> A'             
     e( 10 - 10) =      9.86155  eV     1   --> A''            
     e( 11 - 11) =     11.58384  eV     1   --> A'             
     e( 12 - 12) =     12.38404  eV     1   --> A'             
     e( 13 - 13) =     12.40363  eV     1   --> A''            
     e( 14 - 14) =     13.01789  eV     1   --> A''            
     e( 15 - 15) =     13.29479  eV     1   --> A'             
     e( 16 - 16) =     13.46593  eV     1   --> A'             

 **************************************************************************

 **************************************************************************

                    xk=(   0.58333,   0.14434,   0.00000  )

     Band symmetry, C_s (m)     point group:

     e(  1 -  1) =    -23.21572  eV     1   --> A''            
     e(  2 -  2) =    -21.20887  eV     1   --> A'             
     e(  3 -  3) =    -15.55223  eV     1   --> A'             
     e(  4 -  4) =     -8.52538  eV     1   --> A''            
     e(  5 -  5) =     -7.11093  eV     1   --> A'             
     e(  6 -  6) =     -4.75874  eV     1   --> A''            
     e(  7 -  7) =     -4.32726  eV     1   --> A'             
     e(  8 -  8) =     -2.21921  eV     1   --> A'             
     e(  9 -  9) =      5.09368  eV     1   --> A'             
     e( 10 - 10) =     10.09257  eV     1   --> A''            
     e( 11 - 11) =     11.64266  eV     1   --> A'             
     e( 12 - 12) =     12.21888  eV     1   --> A'             
     e( 13 - 13) =     12.29304  eV     1   --> A''            
     e( 14 - 14) =     12.88120  eV     1   --> A''            
     e( 15 - 15) =     13.18236  eV     1   --> A'             
     e( 16 - 16) =     13.19551  eV     1   --> A'             

 **************************************************************************

 **************************************************************************

                    xk=(   0.57500,   0.15877,   0.00000  )

     Band symmetry, C_s (m)     point group:

     e(  1 -  1) =    -23.30328  eV     1   --> A''            
     e(  2 -  2) =    -21.22936  eV     1   --> A'             
     e(  3 -  3) =    -15.25934  eV     1   --> A'             
     e(  4 -  4) =     -8.61171  eV     1   --> A''            
     e(  5 -  5) =     -7.17140  eV     1   --> A'             
     e(  6 -  6) =     -4.82159  eV     1   --> A''            
     e(  7 -  7) =     -4.51605  eV     1   --> A'             
     e(  8 -  8) =     -1.91511  eV     1   --> A'             
     e(  9 -  9) =      4.85766  eV     1   --> A'             
     e( 10 - 10) =     10.32628  eV     1   --> A''            
     e( 11 - 11) =     11.69041  eV     1   --> A'             
     e( 12 - 12) =     12.04698  eV     1   --> A'             
     e( 13 - 13) =     12.19130  eV     1   --> A''            
     e( 14 - 14) =     12.76038  eV     1   --> A''            
     e( 15 - 15) =     12.93674  eV     1   --> A'             
     e( 16 - 16) =     13.08616  eV     1   --> A'             

 **************************************************************************

 **************************************************************************

                    xk=(   0.56667,   0.17321,   0.00000  )

     Band symmetry, C_s (m)     point group:

     e(  1 -  1) =    -23.38163  eV     1   --> A''            
     e(  2 -  2) =    -21.25263  eV     1   --> A'             
     e(  3 -  3) =    -14.96749  eV     1   --> A'             
     e(  4 -  4) =     -8.68899  eV     1   --> A''            
     e(  5 -  5) =     -7.22830  eV     1   --> A'             
     e(  6 -  6) =     -4.87867  eV     1   --> A''            
     e(  7 -  7) =     -4.71937  eV     1   --> A'             
     e(  8 -  8) =     -1.62123  eV     1   --> A'             
     e(  9 -  9) =      4.65047  eV     1   --> A'             
     e( 10 - 10) =     10.56031  eV     1   --> A''            
     e( 11 - 11) =     11.72612  eV     1   --> A'             
     e( 12 - 12) =     11.86307  eV     1   --> A'             
     e( 13 - 13) =     12.09903  eV     1   --> A''            
     e( 14 - 14) =     12.65653  eV     1   --> A''            
     e( 15 - 15) =     12.70406  eV     1   --> A'             
     e( 16 - 16) =     13.00602  eV     1   --> A'             

 **************************************************************************

 **************************************************************************

                    xk=(   0.55833,   0.18764,   0.00000  )

     Band symmetry, C_s (m)     point group:

     e(  1 -  1) =    -23.45077  eV     1   --> A''            
     e(  2 -  2) =    -21.27676  eV     1   --> A'             
     e(  3 -  3) =    -14.68297  eV     1   --> A'             
     e(  4 -  4) =     -8.75725  eV     1   --> A''            
     e(  5 -  5) =     -7.28047  eV     1   --> A'             
     e(  6 -  6) =     -4.93051  eV     1   --> A'             
     e(  7 -  7) =     -4.92970  eV     1   --> A''            
     e(  8 -  8) =     -1.34277  eV     1   --> A'             
     e(  9 -  9) =      4.47166  eV     1   --> A'             
     e( 10 - 10) =     10.79113  eV     1   --> A''            
     e( 11 - 11) =     11.66506  eV     1   --> A'             
     e( 12 - 12) =     11.75005  eV     1   --> A'             
     e( 13 - 13) =     12.01669  eV     1   --> A''            
     e( 14 - 14) =     12.50800  eV     1   --> A'             
     e( 15 - 15) =     12.57140  eV     1   --> A''            
     e( 16 - 16) =     12.94113  eV     1   --> A'             

 **************************************************************************

 **************************************************************************

                    xk=(   0.55000,   0.20207,   0.00000  )

     Band symmetry, C_s (m)     point group:

     e(  1 -  1) =    -23.51069  eV     1   --> A''            
     e(  2 -  2) =    -21.30021  eV     1   --> A'             
     e(  3 -  3) =    -14.41249  eV     1   --> A'             
     e(  4 -  4) =     -8.81644  eV     1   --> A''            
     e(  5 -  5) =     -7.32698  eV     1   --> A'             
     e(  6 -  6) =     -5.14168  eV     1   --> A'             
     e(  7 -  7) =     -4.97441  eV     1   --> A''            
     e(  8 -  8) =     -1.08501  eV     1   --> A'             
     e(  9 -  9) =      4.32028  eV     1   --> A'             
     e( 10 - 10) =     11.01381  eV     1   --> A''            
     e( 11 - 11) =     11.45852  eV     1   --> A'             
     e( 12 - 12) =     11.76324  eV     1   --> A'             
     e( 13 - 13) =     11.94468  eV     1   --> A''            
     e( 14 - 14) =     12.35151  eV     1   --> A'             
     e( 15 - 15) =     12.50787  eV     1   --> A''            
     e( 16 - 16) =     12.89002  eV     1   --> A'             

 **************************************************************************

 **************************************************************************

                    xk=(   0.54167,   0.21651,   0.00000  )

     Band symmetry, C_s (m)     point group:

     e(  1 -  1) =    -23.56139  eV     1   --> A''            
     e(  2 -  2) =    -21.32180  eV     1   --> A'             
     e(  3 -  3) =    -14.16330  eV     1   --> A'             
     e(  4 -  4) =     -8.86655  eV     1   --> A''            
     e(  5 -  5) =     -7.36722  eV     1   --> A'             
     e(  6 -  6) =     -5.34417  eV     1   --> A'             
     e(  7 -  7) =     -5.01260  eV     1   --> A''            
     e(  8 -  8) =     -0.85349  eV     1   --> A'             
     e(  9 -  9) =      4.19513  eV     1   --> A'             
     e( 10 - 10) =     11.22081  eV     1   --> A''            
     e( 11 - 11) =     11.25504  eV     1   --> A'             
     e( 12 - 12) =     11.76811  eV     1   --> A'             
     e( 13 - 13) =     11.88330  eV     1   --> A''            
     e( 14 - 14) =     12.23076  eV     1   --> A'             
     e( 15 - 15) =     12.47054  eV     1   --> A''            
     e( 16 - 16) =     12.85083  eV     1   --> A'             

 **************************************************************************

 **************************************************************************

                    xk=(   0.53333,   0.23094,   0.00000  )

     Band symmetry, C_s (m)     point group:

     e(  1 -  1) =    -23.60288  eV     1   --> A''            
     e(  2 -  2) =    -21.34059  eV     1   --> A'             
     e(  3 -  3) =    -13.94327  eV     1   --> A'             
     e(  4 -  4) =     -8.90757  eV     1   --> A''            
     e(  5 -  5) =     -7.40071  eV     1   --> A'             
     e(  6 -  6) =     -5.52864  eV     1   --> A'             
     e(  7 -  7) =     -5.04409  eV     1   --> A''            
     e(  8 -  8) =     -0.65379  eV     1   --> A'             
     e(  9 -  9) =      4.09490  eV     1   --> A'             
     e( 10 - 10) =     11.06820  eV     1   --> A'             
     e( 11 - 11) =     11.40134  eV     1   --> A''            
     e( 12 - 12) =     11.76733  eV     1   --> A'             
     e( 13 - 13) =     11.83280  eV     1   --> A''            
     e( 14 - 14) =     12.13966  eV     1   --> A'             
     e( 15 - 15) =     12.46596  eV     1   --> A''            
     e( 16 - 16) =     12.82162  eV     1   --> A'             

 **************************************************************************

 **************************************************************************

                    xk=(   0.52500,   0.24537,   0.00000  )

     Band symmetry, C_s (m)     point group:

     e(  1 -  1) =    -23.63515  eV     1   --> A''            
     e(  2 -  2) =    -21.35587  eV     1   --> A'             
     e(  3 -  3) =    -13.76049  eV     1   --> A'             
     e(  4 -  4) =     -8.93949  eV     1   --> A''            
     e(  5 -  5) =     -7.42708  eV     1   --> A'             
     e(  6 -  6) =     -5.68548  eV     1   --> A'             
     e(  7 -  7) =     -5.06873  eV     1   --> A''            
     e(  8 -  8) =     -0.49139  eV     1   --> A'             
     e(  9 -  9) =      4.01837  eV     1   --> A'             
     e( 10 - 10) =     10.91014  eV     1   --> A'             
     e( 11 - 11) =     11.54303  eV     1   --> A''            
     e( 12 - 12) =     11.76358  eV     1   --> A'             
     e( 13 - 13) =     11.79340  eV     1   --> A''            
     e( 14 - 14) =     12.07307  eV     1   --> A'             
     e( 15 - 15) =     12.49997  eV     1   --> A''            
     e( 16 - 16) =     12.80063  eV     1   --> A'             

 **************************************************************************

 **************************************************************************

                    xk=(   0.51667,   0.25981,   0.00000  )

     Band symmetry, C_s (m)     point group:

     e(  1 -  1) =    -23.65820  eV     1   --> A''            
     e(  2 -  2) =    -21.36714  eV     1   --> A'             
     e(  3 -  3) =    -13.62285  eV     1   --> A'             
     e(  4 -  4) =     -8.96229  eV     1   --> A''            
     e(  5 -  5) =     -7.44607  eV     1   --> A'             
     e(  6 -  6) =     -5.80556  eV     1   --> A'             
     e(  7 -  7) =     -5.08641  eV     1   --> A''            
     e(  8 -  8) =     -0.37125  eV     1   --> A'             
     e(  9 -  9) =      3.96450  eV     1   --> A'             
     e( 10 - 10) =     10.79035  eV     1   --> A'             
     e( 11 - 11) =     11.63804  eV     1   --> A''            
     e( 12 - 12) =     11.75919  eV     1   --> A'             
     e( 13 - 13) =     11.76530  eV     1   --> A''            
     e( 14 - 14) =     12.02750  eV     1   --> A'             
     e( 15 - 15) =     12.56892  eV     1   --> A''            
     e( 16 - 16) =     12.78653  eV     1   --> A'             

 **************************************************************************

 **************************************************************************

                    xk=(   0.50833,   0.27424,   0.00000  )

     Band symmetry, C_s (m)     point group:

     e(  1 -  1) =    -23.67203  eV     1   --> A''            
     e(  2 -  2) =    -21.37403  eV     1   --> A'             
[...]
     e(  8 -  8) =      1.24218  eV     1   --> A''            
     e(  9 -  9) =      3.27143  eV     1   --> A'             
     e( 10 - 10) =      5.65976  eV     1   --> A'             
     e( 11 - 11) =      5.70024  eV     1   --> A'             
     e( 12 - 12) =      6.15106  eV     1   --> A''            
     e( 13 - 13) =      7.01365  eV     1   --> A'             
     e( 14 - 14) =      7.95061  eV     1   --> A'             
     e( 15 - 15) =     10.38428  eV     1   --> A'             
     e( 16 - 16) =     11.33770  eV     1   --> A'             

 **************************************************************************

 **************************************************************************

                    xk=(   0.21667,   0.12509,   0.00000  )

     Band symmetry, C_s (m)     point group:

     e(  1 -  1) =    -27.27933  eV     1   --> A'             
     e(  2 -  2) =    -14.85263  eV     1   --> A'             
     e(  3 -  3) =    -13.06776  eV     1   --> A'             
     e(  4 -  4) =    -11.82525  eV     1   --> A''            
     e(  5 -  5) =     -8.55335  eV     1   --> A'             
     e(  6 -  6) =     -3.68317  eV     1   --> A'             
     e(  7 -  7) =     -0.73746  eV     1   --> A'             
     e(  8 -  8) =      1.41355  eV     1   --> A''            
     e(  9 -  9) =      3.05760  eV     1   --> A'             
     e( 10 - 10) =      5.42079  eV     1   --> A'             
     e( 11 - 11) =      5.45246  eV     1   --> A'             
     e( 12 - 12) =      5.62064  eV     1   --> A''            
     e( 13 - 13) =      6.76830  eV     1   --> A'             
     e( 14 - 14) =      7.71402  eV     1   --> A'             
     e( 15 - 15) =     10.14722  eV     1   --> A'             
     e( 16 - 16) =     11.49359  eV     1   --> A'             

 **************************************************************************

 **************************************************************************

                    xk=(   0.20000,   0.11547,   0.00000  )

     Band symmetry, C_s (m)     point group:

     e(  1 -  1) =    -27.43633  eV     1   --> A'             
     e(  2 -  2) =    -14.37155  eV     1   --> A'             
     e(  3 -  3) =    -13.23516  eV     1   --> A'             
     e(  4 -  4) =    -11.65172  eV     1   --> A''            
     e(  5 -  5) =     -8.69083  eV     1   --> A'             
     e(  6 -  6) =     -3.68774  eV     1   --> A'             
     e(  7 -  7) =     -0.29417  eV     1   --> A'             
     e(  8 -  8) =      1.58807  eV     1   --> A''            
     e(  9 -  9) =      2.84254  eV     1   --> A'             
     e( 10 - 10) =      5.10901  eV     1   --> A''            
     e( 11 - 11) =      5.19918  eV     1   --> A'             
     e( 12 - 12) =      5.22249  eV     1   --> A'             
     e( 13 - 13) =      6.53963  eV     1   --> A'             
     e( 14 - 14) =      7.49462  eV     1   --> A'             
     e( 15 - 15) =      9.92539  eV     1   --> A'             
     e( 16 - 16) =     11.38346  eV     1   --> A'             

 **************************************************************************

 **************************************************************************

                    xk=(   0.18333,   0.10585,   0.00000  )

     Band symmetry, C_s (m)     point group:

     e(  1 -  1) =    -27.58117  eV     1   --> A'             
     e(  2 -  2) =    -13.89288  eV     1   --> A'             
     e(  3 -  3) =    -13.38956  eV     1   --> A'             
     e(  4 -  4) =    -11.47698  eV     1   --> A''            
     e(  5 -  5) =     -8.81920  eV     1   --> A'             
     e(  6 -  6) =     -3.71739  eV     1   --> A'             
     e(  7 -  7) =      0.13929  eV     1   --> A'             
     e(  8 -  8) =      1.76393  eV     1   --> A''            
     e(  9 -  9) =      2.63393  eV     1   --> A'             
     e( 10 - 10) =      4.61938  eV     1   --> A''            
     e( 11 - 11) =      4.99479  eV     1   --> A'             
     e( 12 - 12) =      5.01067  eV     1   --> A'             
     e( 13 - 13) =      6.32787  eV     1   --> A'             
     e( 14 - 14) =      7.29253  eV     1   --> A'             
     e( 15 - 15) =      9.71921  eV     1   --> A'             
     e( 16 - 16) =     11.22087  eV     1   --> A'             

 **************************************************************************

 **************************************************************************

                    xk=(   0.16667,   0.09623,   0.00000  )

     Band symmetry, C_s (m)     point group:

     e(  1 -  1) =    -27.71374  eV     1   --> A'             
     e(  2 -  2) =    -13.53085  eV     1   --> A'             
     e(  3 -  3) =    -13.41912  eV     1   --> A'             
     e(  4 -  4) =    -11.30311  eV     1   --> A''            
     e(  5 -  5) =     -8.93794  eV     1   --> A'             
     e(  6 -  6) =     -3.77458  eV     1   --> A'             
     e(  7 -  7) =      0.55977  eV     1   --> A'             
     e(  8 -  8) =      1.93911  eV     1   --> A''            
     e(  9 -  9) =      2.43855  eV     1   --> A'             
     e( 10 - 10) =      4.15490  eV     1   --> A''            
     e( 11 - 11) =      4.80707  eV     1   --> A'             
     e( 12 - 12) =      4.81769  eV     1   --> A'             
     e( 13 - 13) =      6.13327  eV     1   --> A'             
     e( 14 - 14) =      7.10784  eV     1   --> A'             
     e( 15 - 15) =      9.52902  eV     1   --> A'             
     e( 16 - 16) =     11.06313  eV     1   --> A'             

 **************************************************************************

 **************************************************************************

                    xk=(   0.15000,   0.08660,   0.00000  )

     Band symmetry, C_s (m)     point group:

     e(  1 -  1) =    -27.83394  eV     1   --> A'             
     e(  2 -  2) =    -13.65892  eV     1   --> A'             
     e(  3 -  3) =    -12.95333  eV     1   --> A'             
     e(  4 -  4) =    -11.13240  eV     1   --> A''            
     e(  5 -  5) =     -9.04660  eV     1   --> A'             
     e(  6 -  6) =     -3.86073  eV     1   --> A'             
     e(  7 -  7) =      0.96366  eV     1   --> A'             
     e(  8 -  8) =      2.11129  eV     1   --> A''            
     e(  9 -  9) =      2.26203  eV     1   --> A'             
     e( 10 - 10) =      3.71889  eV     1   --> A''            
     e( 11 - 11) =      4.63468  eV     1   --> A'             
     e( 12 - 12) =      4.64505  eV     1   --> A'             
     e( 13 - 13) =      5.95602  eV     1   --> A'             
     e( 14 - 14) =      6.94062  eV     1   --> A'             
     e( 15 - 15) =      9.35518  eV     1   --> A'             
     e( 16 - 16) =     10.91556  eV     1   --> A'             

 **************************************************************************

 **************************************************************************

                    xk=(   0.13333,   0.07698,   0.00000  )

     Band symmetry, C_s (m)     point group:

     e(  1 -  1) =    -27.94168  eV     1   --> A'             
     e(  2 -  2) =    -13.77373  eV     1   --> A'             
     e(  3 -  3) =    -12.49924  eV     1   --> A'             
     e(  4 -  4) =    -10.96748  eV     1   --> A''            
     e(  5 -  5) =     -9.14476  eV     1   --> A'             
     e(  6 -  6) =     -3.97552  eV     1   --> A'             
     e(  7 -  7) =      1.34680  eV     1   --> A'             
     e(  8 -  8) =      2.10816  eV     1   --> A'             
     e(  9 -  9) =      2.27784  eV     1   --> A''            
     e( 10 - 10) =      3.31471  eV     1   --> A''            
     e( 11 - 11) =      4.47788  eV     1   --> A'             
     e( 12 - 12) =      4.49260  eV     1   --> A'             
     e( 13 - 13) =      5.79634  eV     1   --> A'             
     e( 14 - 14) =      6.79092  eV     1   --> A'             
     e( 15 - 15) =      9.19805  eV     1   --> A'             
     e( 16 - 16) =     10.78087  eV     1   --> A'             

 **************************************************************************

 **************************************************************************

                    xk=(   0.11667,   0.06736,   0.00000  )

     Band symmetry, C_s (m)     point group:

     e(  1 -  1) =    -28.03688  eV     1   --> A'             
     e(  2 -  2) =    -13.87518  eV     1   --> A'             
     e(  3 -  3) =    -12.06157  eV     1   --> A'             
     e(  4 -  4) =    -10.81115  eV     1   --> A''            
     e(  5 -  5) =     -9.23207  eV     1   --> A'             
     e(  6 -  6) =     -4.11632  eV     1   --> A'             
     e(  7 -  7) =      1.70463  eV     1   --> A'             
     e(  8 -  8) =      1.97900  eV     1   --> A'             
     e(  9 -  9) =      2.43591  eV     1   --> A''            
     e( 10 - 10) =      2.94591  eV     1   --> A''            
     e( 11 - 11) =      4.33833  eV     1   --> A'             
     e( 12 - 12) =      4.35877  eV     1   --> A'             
     e( 13 - 13) =      5.65446  eV     1   --> A'             
     e( 14 - 14) =      6.65879  eV     1   --> A'             
     e( 15 - 15) =      9.05799  eV     1   --> A'             
     e( 16 - 16) =     10.66058  eV     1   --> A'             

 **************************************************************************

 **************************************************************************

                    xk=(   0.10000,   0.05774,   0.00000  )

     Band symmetry, C_s (m)     point group:

     e(  1 -  1) =    -28.11948  eV     1   --> A'             
     e(  2 -  2) =    -13.96321  eV     1   --> A'             
     e(  3 -  3) =    -11.64644  eV     1   --> A'             
     e(  4 -  4) =    -10.66647  eV     1   --> A''            
     e(  5 -  5) =     -9.30819  eV     1   --> A'             
     e(  6 -  6) =     -4.27802  eV     1   --> A'             
     e(  7 -  7) =      1.87474  eV     1   --> A'             
     e(  8 -  8) =      2.03193  eV     1   --> A'             
     e(  9 -  9) =      2.58238  eV     1   --> A''            
     e( 10 - 10) =      2.61607  eV     1   --> A''            
     e( 11 - 11) =      4.21675  eV     1   --> A'             
     e( 12 - 12) =      4.24298  eV     1   --> A'             
     e( 13 - 13) =      5.53061  eV     1   --> A'             
     e( 14 - 14) =      6.54425  eV     1   --> A'             
     e( 15 - 15) =      8.93541  eV     1   --> A'             
     e( 16 - 16) =     10.55555  eV     1   --> A'             

 **************************************************************************

 **************************************************************************

                    xk=(   0.08333,   0.04811,   0.00000  )

     Band symmetry, C_s (m)     point group:

     e(  1 -  1) =    -28.18946  eV     1   --> A'             
     e(  2 -  2) =    -14.03778  eV     1   --> A'             
     e(  3 -  3) =    -11.26174  eV     1   --> A'             
     e(  4 -  4) =    -10.53662  eV     1   --> A''            
     e(  5 -  5) =     -9.37289  eV     1   --> A'             
     e(  6 -  6) =     -4.45245  eV     1   --> A'             
     e(  7 -  7) =      1.79395  eV     1   --> A'             
     e(  8 -  8) =      2.32311  eV     1   --> A'             
     e(  9 -  9) =      2.32887  eV     1   --> A''            
     e( 10 - 10) =      2.71401  eV     1   --> A''            
     e( 11 - 11) =      4.11344  eV     1   --> A'             
     e( 12 - 12) =      4.14506  eV     1   --> A'             
     e( 13 - 13) =      5.42508  eV     1   --> A'             
     e( 14 - 14) =      6.44733  eV     1   --> A'             
     e( 15 - 15) =      8.83072  eV     1   --> A'             
     e( 16 - 16) =     10.46629  eV     1   --> A'             

 **************************************************************************

 **************************************************************************

                    xk=(   0.06667,   0.03849,   0.00000  )

     Band symmetry, C_s (m)     point group:

     e(  1 -  1) =    -28.24676  eV     1   --> A'             
     e(  2 -  2) =    -14.09885  eV     1   --> A'             
     e(  3 -  3) =    -10.91751  eV     1   --> A'             
     e(  4 -  4) =    -10.42479  eV     1   --> A''            
     e(  5 -  5) =     -9.42587  eV     1   --> A'             
     e(  6 -  6) =     -4.62833  eV     1   --> A'             
     e(  7 -  7) =      1.73405  eV     1   --> A'             
     e(  8 -  8) =      2.08783  eV     1   --> A''            
     e(  9 -  9) =      2.57234  eV     1   --> A'             
     e( 10 - 10) =      2.82749  eV     1   --> A''            
     e( 11 - 11) =      4.02858  eV     1   --> A'             
     e( 12 - 12) =      4.06497  eV     1   --> A'             
     e( 13 - 13) =      5.33817  eV     1   --> A'             
     e( 14 - 14) =      6.36803  eV     1   --> A'             
     e( 15 - 15) =      8.74432  eV     1   --> A'             
     e( 16 - 16) =     10.39311  eV     1   --> A'             

 **************************************************************************

 **************************************************************************

                    xk=(   0.05000,   0.02887,   0.00000  )

     Band symmetry, C_s (m)     point group:

     e(  1 -  1) =    -28.29136  eV     1   --> A'             
     e(  2 -  2) =    -14.14638  eV     1   --> A'             
     e(  3 -  3) =    -10.62626  eV     1   --> A'             
     e(  4 -  4) =    -10.33402  eV     1   --> A''            
     e(  5 -  5) =     -9.46692  eV     1   --> A'             
     e(  6 -  6) =     -4.79150  eV     1   --> A'             
     e(  7 -  7) =      1.69197  eV     1   --> A'             
     e(  8 -  8) =      1.89634  eV     1   --> A''            
     e(  9 -  9) =      2.77380  eV     1   --> A'             
     e( 10 - 10) =      2.91969  eV     1   --> A''            
     e( 11 - 11) =      3.96235  eV     1   --> A'             
     e( 12 - 12) =      4.00269  eV     1   --> A'             
     e( 13 - 13) =      5.27017  eV     1   --> A'             
     e( 14 - 14) =      6.30638  eV     1   --> A'             
     e( 15 - 15) =      8.67663  eV     1   --> A'             
     e( 16 - 16) =     10.33614  eV     1   --> A'             

 **************************************************************************

 **************************************************************************

                    xk=(   0.03333,   0.01925,   0.00000  )

     Band symmetry, C_s (m)     point group:

     e(  1 -  1) =    -28.32323  eV     1   --> A'             
     e(  2 -  2) =    -14.18035  eV     1   --> A'             
     e(  3 -  3) =    -10.40247  eV     1   --> A'             
     e(  4 -  4) =    -10.26703  eV     1   --> A''            
     e(  5 -  5) =     -9.49594  eV     1   --> A'             
     e(  6 -  6) =     -4.92571  eV     1   --> A'             
     e(  7 -  7) =      1.66459  eV     1   --> A'             
     e(  8 -  8) =      1.75719  eV     1   --> A''            
     e(  9 -  9) =      2.92217  eV     1   --> A'             
     e( 10 - 10) =      2.98781  eV     1   --> A''            
     e( 11 - 11) =      3.91490  eV     1   --> A'             
     e( 12 - 12) =      3.95822  eV     1   --> A'             
     e( 13 - 13) =      5.22136  eV     1   --> A'             
     e( 14 - 14) =      6.26235  eV     1   --> A'             
     e( 15 - 15) =      8.62798  eV     1   --> A'             
     e( 16 - 16) =     10.29546  eV     1   --> A'             

 **************************************************************************

 **************************************************************************

                    xk=(   0.01667,   0.00962,   0.00000  )

     Band symmetry, C_s (m)     point group:

     e(  1 -  1) =    -28.34236  eV     1   --> A'             
     e(  2 -  2) =    -14.20073  eV     1   --> A'             
     e(  3 -  3) =    -10.26069  eV     1   --> A'             
     e(  4 -  4) =    -10.22594  eV     1   --> A''            
     e(  5 -  5) =     -9.51303  eV     1   --> A'             
     e(  6 -  6) =     -5.01473  eV     1   --> A'             
     e(  7 -  7) =      1.64933  eV     1   --> A'             
     e(  8 -  8) =      1.67273  eV     1   --> A''            
     e(  9 -  9) =      3.01310  eV     1   --> A'             
     e( 10 - 10) =      3.02962  eV     1   --> A''            
     e( 11 - 11) =      3.88637  eV     1   --> A'             
     e( 12 - 12) =      3.93154  eV     1   --> A'             
     e( 13 - 13) =      5.19197  eV     1   --> A'             
     e( 14 - 14) =      6.23593  eV     1   --> A'             
     e( 15 - 15) =      8.59868  eV     1   --> A'             
     e( 16 - 16) =     10.27106  eV     1   --> A'             

 **************************************************************************

 **************************************************************************

                    xk=(   0.00000,   0.00000,   0.00000  )

     point group C_6v (6mm) 
     there are  6 classes
     the character table:

       E     2C6   2C3   C2    3s_v  3s_d 
A_1    1.00  1.00  1.00  1.00  1.00  1.00
A_2    1.00  1.00  1.00  1.00 -1.00 -1.00
B_1    1.00 -1.00  1.00 -1.00  1.00 -1.00
B_2    1.00 -1.00  1.00 -1.00 -1.00  1.00
E_1    2.00  1.00 -1.00 -2.00  0.00  0.00
E_2    2.00 -1.00 -1.00  2.00  0.00  0.00

     the symmetry operations in each class and the name of the first element:

     E        1
                                                                 
     2C6      3    4
                                                                 
     2C3      5    6
                                                                 
     C2       2
                                                                 
     3s_v     8   12   11
                                                                 
     3s_d     7    9   10
                                                                 

     Band symmetry, C_6v (6mm)  point group:

     e(  1 -  1) =    -28.34873  eV     1   --> A_1            
     e(  2 -  2) =    -14.20753  eV     1   --> A_1            
     e(  3 -  4) =    -10.21209  eV     2   --> E_2            
     e(  5 -  5) =     -9.51863  eV     1   --> A_1            
     e(  6 -  6) =     -5.04592  eV     1   --> B_1            
     e(  7 -  8) =      1.64440  eV     2   --> E_1            
     e(  9 - 10) =      3.04371  eV     2   --> E_2            
     e( 11 - 11) =      3.87685  eV     1   --> A_1            
     e( 12 - 12) =      3.92265  eV     1   --> A_1            
     e( 13 - 13) =      5.18216  eV     1   --> A_1            
     e( 14 - 14) =      6.22713  eV     1   --> A_1            
     e( 15 - 15) =      8.58889  eV     1   --> A_1            
     e( 16 - 16) =     10.26293  eV     1   --> A_1            

 **************************************************************************

     BANDS        :      4.91s CPU      5.12s WALL


   This run was terminated on:   5: 3:49  19Mar2025            

=------------------------------------------------------------------------------=
   JOB DONE.
=------------------------------------------------------------------------------=
Note: The following floating-point exceptions are signalling: IEEE_DENORMAL
Note: The following floating-point exceptions are signalling: IEEE_DENORMAL
Note: The following floating-point exceptions are signalling: IEEE_DENORMAL
