
     Program BANDS v.7.4.1 starts on 23Mar2025 at 11:58:37 

     This program is part of the open-source Quantum ESPRESSO suite
     for quantum simulation of materials; please cite
         "P. Giannozzi et al., J. Phys.:Condens. Matter 21 395502 (2009);
         "P. Giannozzi et al., J. Phys.:Condens. Matter 29 465901 (2017);
         "P. Giannozzi et al., J. Chem. Phys. 152 154105 (2020);
          URL http://www.quantum-espresso.org", 
     in publications or presentations arising from this work. More details at
     http://www.quantum-espresso.org/quote

     Parallel version (MPI), running on     7 processors

     MPI processes distributed on     1 nodes
     R & G space division:  proc/nbgrp/npool/nimage =       7
     11336 MiB available memory on the printing compute node when the environment starts


     Reading xml data from directory:

     ../../../../tmp/gr-aa-2L.save/

     IMPORTANT: XC functional enforced from input :
     Exchange-correlation= PBE
                           (   1   4   3   4   0   0   0)
     Any further DFT definition will be discarded
     Please, verify this is what you really want


     Parallelization info
     --------------------
     sticks:   dense  smooth     PW     G-vecs:    dense   smooth      PW
     Min          62      51     15                 6632     4783     815
     Max          63      52     16                 6655     4800     838
     Sum         439     361    109                46531    33523    5791

     Using Slab Decomposition


     Check: negative core charge=   -0.000003

     negative rho (up, down):  3.931E-04 0.000E+00
     Reading collected, re-writing distributed wavefunctions
     high-symmetry point:  0.0000 0.0000 0.0000   x coordinate   0.0000
     high-symmetry point:  0.6667 0.0000 0.0000   x coordinate   0.6667
     high-symmetry point:  0.5000 0.2887 0.0000   x coordinate   1.0000
     high-symmetry point:  0.0000 0.0000 0.0000   x coordinate   1.5774

     Plottable bands (eV) written to file gr-aa-2L.bands.gnu
     Bands written to file gr-aa-2L.bands

 **************************************************************************

                    xk=(   0.00000,   0.00000,   0.00000  )

     point group C_6v (6mm) 
     there are  6 classes
     the character table:

       E     2C6   2C3   C2    3s_v  3s_d 
A_1    1.00  1.00  1.00  1.00  1.00  1.00
A_2    1.00  1.00  1.00  1.00 -1.00 -1.00
B_1    1.00 -1.00  1.00 -1.00  1.00 -1.00
B_2    1.00 -1.00  1.00 -1.00 -1.00  1.00
E_1    2.00  1.00 -1.00 -2.00  0.00  0.00
E_2    2.00 -1.00 -1.00  2.00  0.00  0.00

     the symmetry operations in each class and the name of the first element:

     E        1
                                                                 
     2C6      3    4
                                                                 
     2C3      5    6
                                                                 
     C2       2
                                                                 
     3s_v     8   12   11
                                                                 
     3s_d     7    9   10
                                                                 

     Band symmetry, C_6v (6mm)  point group:

     e(  1 -  1) =    -28.34767  eV     1   --> A_1            
     e(  2 -  2) =    -14.20680  eV     1   --> A_1            
     e(  3 -  4) =    -10.21093  eV     2   --> E_2            
     e(  5 -  5) =     -9.51791  eV     1   --> A_1            
     e(  6 -  6) =     -5.04469  eV     1   --> B_1            
     e(  7 -  8) =      1.64545  eV     2   --> E_1            
     e(  9 - 10) =      3.04477  eV     2   --> E_2            
     e( 11 - 11) =      3.96634  eV     1   --> A_1            
     e( 12 - 12) =      3.96880  eV     1   --> A_1            
     e( 13 - 13) =      5.24557  eV     1   --> A_1            
     e( 14 - 14) =      6.30851  eV     1   --> A_1            
     e( 15 - 15) =      8.66895  eV     1   --> A_1            
     e( 16 - 16) =     10.33309  eV     1   --> A_1            

 **************************************************************************

 **************************************************************************

                    xk=(   0.01667,   0.00000,   0.00000  )

     point group C_s (m)    
     there are  2 classes
     the character table:

       E     s    
A'     1.00  1.00
A''    1.00 -1.00

     the symmetry operations in each class and the name of the first element:

     E        1
                                                                 
     s        2
                                                                 

     Band symmetry, C_s (m)     point group:

     e(  1 -  1) =    -28.34289  eV     1   --> A'             
     e(  2 -  2) =    -14.20171  eV     1   --> A'             
     e(  3 -  3) =    -10.24740  eV     1   --> A''            
     e(  4 -  4) =    -10.22135  eV     1   --> A'             
     e(  5 -  5) =     -9.51371  eV     1   --> A'             
     e(  6 -  6) =     -5.02120  eV     1   --> A''            
     e(  7 -  7) =      1.64913  eV     1   --> A'             
     e(  8 -  8) =      1.66672  eV     1   --> A''            
     e(  9 -  9) =      3.02182  eV     1   --> A''            
     e( 10 - 10) =      3.03417  eV     1   --> A'             
     e( 11 - 11) =      3.97346  eV     1   --> A'             
     e( 12 - 12) =      3.97549  eV     1   --> A'             
     e( 13 - 13) =      5.25292  eV     1   --> A'             
     e( 14 - 14) =      6.31511  eV     1   --> A'             
     e( 15 - 15) =      8.67629  eV     1   --> A'             
     e( 16 - 16) =     10.33917  eV     1   --> A'             

 **************************************************************************

 **************************************************************************

                    xk=(   0.03333,   0.00000,   0.00000  )

     Band symmetry, C_s (m)     point group:

     e(  1 -  1) =    -28.32854  eV     1   --> A'             
     e(  2 -  2) =    -14.18641  eV     1   --> A'             
     e(  3 -  3) =    -10.35423  eV     1   --> A''            
     e(  4 -  4) =    -10.25279  eV     1   --> A'             
     e(  5 -  5) =     -9.50091  eV     1   --> A'             
     e(  6 -  6) =     -4.95334  eV     1   --> A''            
     e(  7 -  7) =      1.66018  eV     1   --> A'             
     e(  8 -  8) =      1.73050  eV     1   --> A''            
     e(  9 -  9) =      2.95366  eV     1   --> A''            
     e( 10 - 10) =      3.00242  eV     1   --> A'             
     e( 11 - 11) =      3.99460  eV     1   --> A'             
     e( 12 - 12) =      3.99579  eV     1   --> A'             
     e( 13 - 13) =      5.27494  eV     1   --> A'             
     e( 14 - 14) =      6.33493  eV     1   --> A'             
     e( 15 - 15) =      8.69828  eV     1   --> A'             
     e( 16 - 16) =     10.35743  eV     1   --> A'             

 **************************************************************************

 **************************************************************************

                    xk=(   0.05000,   0.00000,   0.00000  )

     Band symmetry, C_s (m)     point group:

     e(  1 -  1) =    -28.30464  eV     1   --> A'             
     e(  2 -  2) =    -14.16095  eV     1   --> A'             
     e(  3 -  3) =    -10.52417  eV     1   --> A''            
     e(  4 -  4) =    -10.30544  eV     1   --> A'             
     e(  5 -  5) =     -9.47894  eV     1   --> A'             
     e(  6 -  6) =     -4.84847  eV     1   --> A''            
     e(  7 -  7) =      1.67875  eV     1   --> A'             
     e(  8 -  8) =      1.83657  eV     1   --> A''            
     e(  9 -  9) =      2.84252  eV     1   --> A''            
     e( 10 - 10) =      2.94973  eV     1   --> A'             
     e( 11 - 11) =      4.02839  eV     1   --> A'             
     e( 12 - 12) =      4.03101  eV     1   --> A'             
     e( 13 - 13) =      5.31154  eV     1   --> A'             
     e( 14 - 14) =      6.36797  eV     1   --> A'             
     e( 15 - 15) =      8.73481  eV     1   --> A'             
     e( 16 - 16) =     10.38787  eV     1   --> A'             

 **************************************************************************

 **************************************************************************

                    xk=(   0.06667,   0.00000,   0.00000  )

     Band symmetry, C_s (m)     point group:

     e(  1 -  1) =    -28.27118  eV     1   --> A'             
     e(  2 -  2) =    -14.12529  eV     1   --> A'             
     e(  3 -  3) =    -10.74735  eV     1   --> A''            
     e(  4 -  4) =    -10.37942  eV     1   --> A'             
     e(  5 -  5) =     -9.44722  eV     1   --> A'             
     e(  6 -  6) =     -4.71637  eV     1   --> A''            
     e(  7 -  7) =      1.70546  eV     1   --> A'             
     e(  8 -  8) =      1.98462  eV     1   --> A''            
     e(  9 -  9) =      2.69179  eV     1   --> A''            
     e( 10 - 10) =      2.87639  eV     1   --> A'             
     e( 11 - 11) =      4.07507  eV     1   --> A'             
     e( 12 - 12) =      4.08083  eV     1   --> A'             
     e( 13 - 13) =      5.36259  eV     1   --> A'             
     e( 14 - 14) =      6.41424  eV     1   --> A'             
     e( 15 - 15) =      8.78572  eV     1   --> A'             
     e( 16 - 16) =     10.43053  eV     1   --> A'             

 **************************************************************************

 **************************************************************************

                    xk=(   0.08333,   0.00000,   0.00000  )

     Band symmetry, C_s (m)     point group:

     e(  1 -  1) =    -28.22818  eV     1   --> A'             
     e(  2 -  2) =    -14.07946  eV     1   --> A'             
     e(  3 -  3) =    -11.01352  eV     1   --> A''            
     e(  4 -  4) =    -10.47444  eV     1   --> A'             
     e(  5 -  5) =     -9.40529  eV     1   --> A'             
     e(  6 -  6) =     -4.56712  eV     1   --> A''            
     e(  7 -  7) =      1.74072  eV     1   --> A'             
     e(  8 -  8) =      2.17387  eV     1   --> A''            
     e(  9 -  9) =      2.50561  eV     1   --> A''            
     e( 10 - 10) =      2.78292  eV     1   --> A'             
     e( 11 - 11) =      4.13502  eV     1   --> A'             
     e( 12 - 12) =      4.14478  eV     1   --> A'             
     e( 13 - 13) =      5.42791  eV     1   --> A'             
     e( 14 - 14) =      6.47375  eV     1   --> A'             
     e( 15 - 15) =      8.85079  eV     1   --> A'             
     e( 16 - 16) =     10.48543  eV     1   --> A'             

 **************************************************************************

 **************************************************************************

                    xk=(   0.10000,   0.00000,   0.00000  )

     Band symmetry, C_s (m)     point group:

     e(  1 -  1) =    -28.17566  eV     1   --> A'             
     e(  2 -  2) =    -14.02349  eV     1   --> A'             
     e(  3 -  3) =    -11.31324  eV     1   --> A''            
     e(  4 -  4) =    -10.58985  eV     1   --> A'             
     e(  5 -  5) =     -9.35296  eV     1   --> A'             
     e(  6 -  6) =     -4.40970  eV     1   --> A''            
     e(  7 -  7) =      1.78510  eV     1   --> A'             
     e(  8 -  8) =      2.28856  eV     1   --> A''            
     e(  9 -  9) =      2.40304  eV     1   --> A''            
     e( 10 - 10) =      2.66995  eV     1   --> A'             
     e( 11 - 11) =      4.20828  eV     1   --> A'             
     e( 12 - 12) =      4.22269  eV     1   --> A'             
     e( 13 - 13) =      5.50731  eV     1   --> A'             
     e( 14 - 14) =      6.54651  eV     1   --> A'             
     e( 15 - 15) =      8.92978  eV     1   --> A'             
     e( 16 - 16) =     10.55261  eV     1   --> A'             

 **************************************************************************

 **************************************************************************

                    xk=(   0.11667,   0.00000,   0.00000  )

     Band symmetry, C_s (m)     point group:

     e(  1 -  1) =    -28.11365  eV     1   --> A'             
     e(  2 -  2) =    -13.95740  eV     1   --> A'             
     e(  3 -  3) =    -11.63848  eV     1   --> A''            
     e(  4 -  4) =    -10.72465  eV     1   --> A'             
     e(  5 -  5) =     -9.29020  eV     1   --> A'             
     e(  6 -  6) =     -4.25126  eV     1   --> A''            
     e(  7 -  7) =      1.83917  eV     1   --> A'             
     e(  8 -  8) =      2.04515  eV     1   --> A''            
     e(  9 -  9) =      2.53825  eV     1   --> A'             
     e( 10 - 10) =      2.67016  eV     1   --> A''            
     e( 11 - 11) =      4.29486  eV     1   --> A'             
     e( 12 - 12) =      4.31444  eV     1   --> A'             
     e( 13 - 13) =      5.60058  eV     1   --> A'             
     e( 14 - 14) =      6.63252  eV     1   --> A'             
     e( 15 - 15) =      9.02240  eV     1   --> A'             
     e( 16 - 16) =     10.63210  eV     1   --> A'             

 **************************************************************************

 **************************************************************************

                    xk=(   0.13333,   0.00000,   0.00000  )

     Band symmetry, C_s (m)     point group:

     e(  1 -  1) =    -28.04215  eV     1   --> A'             
     e(  2 -  2) =    -13.88121  eV     1   --> A'             
     e(  3 -  3) =    -11.98258  eV     1   --> A''            
     e(  4 -  4) =    -10.87766  eV     1   --> A'             
     e(  5 -  5) =     -9.21709  eV     1   --> A'             
     e(  6 -  6) =     -4.09698  eV     1   --> A''            
     e(  7 -  7) =      1.77983  eV     1   --> A''            
     e(  8 -  8) =      1.90355  eV     1   --> A'             
     e(  9 -  9) =      2.38876  eV     1   --> A'             
     e( 10 - 10) =      2.97261  eV     1   --> A''            
     e( 11 - 11) =      4.39475  eV     1   --> A'             
     e( 12 - 12) =      4.41992  eV     1   --> A'             
     e( 13 - 13) =      5.70748  eV     1   --> A'             
     e( 14 - 14) =      6.73181  eV     1   --> A'             
     e( 15 - 15) =      9.12837  eV     1   --> A'             
     e( 16 - 16) =     10.72393  eV     1   --> A'             

 **************************************************************************

 **************************************************************************

                    xk=(   0.15000,   0.00000,   0.00000  )

     Band symmetry, C_s (m)     point group:

     e(  1 -  1) =    -27.96121  eV     1   --> A'             
     e(  2 -  2) =    -13.79496  eV     1   --> A'             
     e(  3 -  3) =    -12.34031  eV     1   --> A''            
     e(  4 -  4) =    -11.04750  eV     1   --> A'             
     e(  5 -  5) =     -9.13382  eV     1   --> A'             
     e(  6 -  6) =     -3.95037  eV     1   --> A''            
     e(  7 -  7) =      1.49657  eV     1   --> A''            
     e(  8 -  8) =      1.97873  eV     1   --> A'             
     e(  9 -  9) =      2.22251  eV     1   --> A'             
     e( 10 - 10) =      3.30690  eV     1   --> A''            
     e( 11 - 11) =      4.50794  eV     1   --> A'             
     e( 12 - 12) =      4.53902  eV     1   --> A'             
     e( 13 - 13) =      5.82783  eV     1   --> A'             
     e( 14 - 14) =      6.84435  eV     1   --> A'             
     e( 15 - 15) =      9.24739  eV     1   --> A'             
     e( 16 - 16) =     10.82811  eV     1   --> A'             

 **************************************************************************

 **************************************************************************

                    xk=(   0.16667,   0.00000,   0.00000  )

     Band symmetry, C_s (m)     point group:

     e(  1 -  1) =    -27.87086  eV     1   --> A'             
     e(  2 -  2) =    -13.69868  eV     1   --> A'             
     e(  3 -  3) =    -12.70749  eV     1   --> A''            
     e(  4 -  4) =    -11.23268  eV     1   --> A'             
     e(  5 -  5) =     -9.04058  eV     1   --> A'             
     e(  6 -  6) =     -3.81347  eV     1   --> A''            
     e(  7 -  7) =      1.19907  eV     1   --> A''            
     e(  8 -  8) =      2.04071  eV     1   --> A'             
     e(  9 -  9) =      2.06521  eV     1   --> A'             
     e( 10 - 10) =      3.66891  eV     1   --> A''            
     e( 11 - 11) =      4.63442  eV     1   --> A'             
     e( 12 - 12) =      4.67165  eV     1   --> A'             
     e( 13 - 13) =      5.96141  eV     1   --> A'             
     e( 14 - 14) =      6.97015  eV     1   --> A'             
     e( 15 - 15) =      9.37918  eV     1   --> A'             
     e( 16 - 16) =     10.94465  eV     1   --> A'             

 **************************************************************************

 **************************************************************************

                    xk=(   0.18333,   0.00000,   0.00000  )

     Band symmetry, C_s (m)     point group:

     e(  1 -  1) =    -27.77114  eV     1   --> A'             
     e(  2 -  2) =    -13.59243  eV     1   --> A'             
     e(  3 -  3) =    -13.08081  eV     1   --> A''            
     e(  4 -  4) =    -11.43172  eV     1   --> A'             
     e(  5 -  5) =     -8.93758  eV     1   --> A'             
     e(  6 -  6) =     -3.68742  eV     1   --> A''            
     e(  7 -  7) =      0.89040  eV     1   --> A''            
     e(  8 -  8) =      1.84457  eV     1   --> A'             
     e(  9 -  9) =      2.16345  eV     1   --> A'             
     e( 10 - 10) =      4.05369  eV     1   --> A''            
     e( 11 - 11) =      4.77416  eV     1   --> A'             
     e( 12 - 12) =      4.81775  eV     1   --> A'             
     e( 13 - 13) =      6.10805  eV     1   --> A'             
     e( 14 - 14) =      7.10920  eV     1   --> A'             
     e( 15 - 15) =      9.52345  eV     1   --> A'             
     e( 16 - 16) =     11.07352  eV     1   --> A'             

 **************************************************************************

 **************************************************************************

                    xk=(   0.20000,   0.00000,   0.00000  )

     Band symmetry, C_s (m)     point group:

     e(  1 -  1) =    -27.66210  eV     1   --> A'             
     e(  2 -  2) =    -13.47625  eV     1   --> A'             
     e(  3 -  3) =    -13.45760  eV     1   --> A''            
     e(  4 -  4) =    -11.64311  eV     1   --> A'             
     e(  5 -  5) =     -8.82505  eV     1   --> A'             
     e(  6 -  6) =     -3.57243  eV     1   --> A''            
     e(  7 -  7) =      0.57337  eV     1   --> A''            
     e(  8 -  8) =      1.63544  eV     1   --> A'             
     e(  9 -  9) =      2.27369  eV     1   --> A'             
     e( 10 - 10) =      4.45547  eV     1   --> A''            
     e( 11 - 11) =      4.92714  eV     1   --> A'             
     e( 12 - 12) =      4.97725  eV     1   --> A'             
     e( 13 - 13) =      6.26757  eV     1   --> A'             
     e( 14 - 14) =      7.26149  eV     1   --> A'             
     e( 15 - 15) =      9.67991  eV     1   --> A'             
     e( 16 - 16) =     11.21469  eV     1   --> A'             

 **************************************************************************

 **************************************************************************

                    xk=(   0.21667,   0.00000,   0.00000  )

     Band symmetry, C_s (m)     point group:

     e(  1 -  1) =    -27.54379  eV     1   --> A'             
     e(  2 -  2) =    -13.83576  eV     1   --> A''            
     e(  3 -  3) =    -13.35019  eV     1   --> A'             
     e(  4 -  4) =    -11.86529  eV     1   --> A'             
     e(  5 -  5) =     -8.70325  eV     1   --> A'             
     e(  6 -  6) =     -3.46848  eV     1   --> A''            
     e(  7 -  7) =      0.25034  eV     1   --> A''            
     e(  8 -  8) =      1.41471  eV     1   --> A'             
     e(  9 -  9) =      2.39624  eV     1   --> A'             
     e( 10 - 10) =      4.86768  eV     1   --> A''            
     e( 11 - 11) =      5.09335  eV     1   --> A'             
     e( 12 - 12) =      5.15009  eV     1   --> A'             
     e( 13 - 13) =      6.43982  eV     1   --> A'             
     e( 14 - 14) =      7.42699  eV     1   --> A'             
     e( 15 - 15) =      9.84827  eV     1   --> A'             
     e( 16 - 16) =     11.36810  eV     1   --> A'             

 **************************************************************************

 **************************************************************************

                    xk=(   0.23333,   0.00000,   0.00000  )

     Band symmetry, C_s (m)     point group:

     e(  1 -  1) =    -27.41628  eV     1   --> A'             
     e(  2 -  2) =    -14.21355  eV     1   --> A''            
     e(  3 -  3) =    -13.21431  eV     1   --> A'             
     e(  4 -  4) =    -12.09679  eV     1   --> A'             
     e(  5 -  5) =     -8.57243  eV     1   --> A'             
     e(  6 -  6) =     -3.37514  eV     1   --> A''            
     e(  7 -  7) =     -0.07664  eV     1   --> A''            
     e(  8 -  8) =      1.18377  eV     1   --> A'             
     e(  9 -  9) =      2.53125  eV     1   --> A'             
     e( 10 - 10) =      5.27275  eV     1   --> A'             
     e( 11 - 11) =      5.28260  eV     1   --> A''            
     e( 12 - 12) =      5.33623  eV     1   --> A'             
     e( 13 - 13) =      6.62466  eV     1   --> A'             
     e( 14 - 14) =      7.60569  eV     1   --> A'             
     e( 15 - 15) =     10.02822  eV     1   --> A'             
     e( 16 - 16) =     11.53619  eV     1   -->   ?

 **************************************************************************

 **************************************************************************

                    xk=(   0.25000,   0.00000,   0.00000  )

     Band symmetry, C_s (m)     point group:

     e(  1 -  1) =    -27.27966  eV     1   --> A'             
     e(  2 -  2) =    -14.58960  eV     1   --> A''            
     e(  3 -  3) =    -13.06871  eV     1   --> A'             
     e(  4 -  4) =    -12.33615  eV     1   --> A'             
     e(  5 -  5) =     -8.43289  eV     1   --> A'             
     e(  6 -  6) =     -3.29199  eV     1   --> A''            
     e(  7 -  7) =     -0.40589  eV     1   --> A''            
     e(  8 -  8) =      0.94398  eV     1   --> A'             
     e(  9 -  9) =      2.67880  eV     1   --> A'             
     e( 10 - 10) =      5.46531  eV     1   --> A'             
     e( 11 - 11) =      5.53562  eV     1   --> A'             
     e( 12 - 12) =      5.69109  eV     1   --> A''            
     e( 13 - 13) =      6.82193  eV     1   --> A'             
     e( 14 - 14) =      7.79755  eV     1   --> A'             
     e( 15 - 15) =     10.21944  eV     1   --> A'             
     e( 16 - 16) =     11.62347  eV     1   --> A''            

 **************************************************************************

 **************************************************************************

                    xk=(   0.26667,   0.00000,   0.00000  )

     Band symmetry, C_s (m)     point group:

     e(  1 -  1) =    -27.13399  eV     1   --> A'             
     e(  2 -  2) =    -14.96275  eV     1   --> A''            
     e(  3 -  3) =    -12.91345  eV     1   --> A'             
     e(  4 -  4) =    -12.58199  eV     1   --> A'             
     e(  5 -  5) =     -8.28490  eV     1   --> A'             
     e(  6 -  6) =     -3.21854  eV     1   --> A''            
     e(  7 -  7) =     -0.73594  eV     1   --> A''            
     e(  8 -  8) =      0.69674  eV     1   --> A'             
     e(  9 -  9) =      2.83889  eV     1   --> A'             
     e( 10 - 10) =      5.67099  eV     1   --> A'             
     e( 11 - 11) =      5.74821  eV     1   --> A'             
     e( 12 - 12) =      6.08236  eV     1   --> A''            
     e( 13 - 13) =      7.03148  eV     1   --> A'             
     e( 14 - 14) =      8.00254  eV     1   --> A'             
     e( 15 - 15) =     10.42155  eV     1   --> A'             
     e( 16 - 16) =     11.54932  eV     1   --> A''            

 **************************************************************************

 **************************************************************************

                    xk=(   0.28333,   0.00000,   0.00000  )

     Band symmetry, C_s (m)     point group:

     e(  1 -  1) =    -26.97938  eV     1   --> A'             
     e(  2 -  2) =    -15.33204  eV     1   --> A''            
     e(  3 -  3) =    -12.83293  eV     1   --> A'             
     e(  4 -  4) =    -12.74861  eV     1   --> A'             
     e(  5 -  5) =     -8.12881  eV     1   --> A'             
     e(  6 -  6) =     -3.15437  eV     1   --> A''            
     e(  7 -  7) =     -1.06547  eV     1   --> A''            
     e(  8 -  8) =      0.44341  eV     1   --> A'             
     e(  9 -  9) =      3.01152  eV     1   --> A'             
     e( 10 - 10) =      5.88976  eV     1   --> A'             
     e( 11 - 11) =      5.97396  eV     1   --> A'             
     e( 12 - 12) =      6.44414  eV     1   --> A''            
     e( 13 - 13) =      7.25316  eV     1   --> A'             
     e( 14 - 14) =      8.22064  eV     1   --> A'             
     e( 15 - 15) =     10.63410  eV     1   --> A'             
     e( 16 - 16) =     11.52085  eV     1   --> A''            

 **************************************************************************

 **************************************************************************

                    xk=(   0.30000,   0.00000,   0.00000  )

     Band symmetry, C_s (m)     point group:

     e(  1 -  1) =    -26.81592  eV     1   --> A'             
     e(  2 -  2) =    -15.69668  eV     1   --> A''            
     e(  3 -  3) =    -13.08768  eV     1   --> A'             
     e(  4 -  4) =    -12.57432  eV     1   --> A'             
     e(  5 -  5) =     -7.96498  eV     1   --> A'             
     e(  6 -  6) =     -3.09916  eV     1   --> A''            
     e(  7 -  7) =     -1.39344  eV     1   --> A''            
     e(  8 -  8) =      0.18524  eV     1   --> A'             
     e(  9 -  9) =      3.19657  eV     1   --> A'             
     e( 10 - 10) =      6.12156  eV     1   --> A'             
     e( 11 - 11) =      6.21280  eV     1   --> A'             
     e( 12 - 12) =      6.76333  eV     1   --> A''            
     e( 13 - 13) =      7.48678  eV     1   --> A'             
     e( 14 - 14) =      8.45177  eV     1   --> A'             
     e( 15 - 15) =     10.85653  eV     1   --> A'             
     e( 16 - 16) =     11.55033  eV     1   --> A''            

 **************************************************************************

 **************************************************************************

                    xk=(   0.31667,   0.00000,   0.00000  )

     Band symmetry, C_s (m)     point group:

     e(  1 -  1) =    -26.64376  eV     1   --> A'             
     e(  2 -  2) =    -16.05601  eV     1   --> A''            
     e(  3 -  3) =    -13.34502  eV     1   --> A'             
     e(  4 -  4) =    -12.39068  eV     1   --> A'             
     e(  5 -  5) =     -7.79381  eV     1   --> A'             
     e(  6 -  6) =     -3.05270  eV     1   --> A''            
     e(  7 -  7) =     -1.71894  eV     1   --> A''            
     e(  8 -  8) =     -0.07649  eV     1   --> A'             
     e(  9 -  9) =      3.39386  eV     1   --> A'             
     e( 10 - 10) =      6.36633  eV     1   --> A'             
     e( 11 - 11) =      6.46466  eV     1   --> A'             
     e( 12 - 12) =      7.02819  eV     1   --> A''            
     e( 13 - 13) =      7.73212  eV     1   --> A'             
     e( 14 - 14) =      8.69590  eV     1   --> A'             
     e( 15 - 15) =     11.08814  eV     1   --> A'             
     e( 16 - 16) =     11.64867  eV     1   --> A''            

 **************************************************************************

 **************************************************************************

                    xk=(   0.33333,   0.00000,   0.00000  )

     Band symmetry, C_s (m)     point group:

     e(  1 -  1) =    -26.46304  eV     1   --> A'             
     e(  2 -  2) =    -16.40949  eV     1   --> A''            
     e(  3 -  3) =    -13.60374  eV     1   --> A'             
     e(  4 -  4) =    -12.19780  eV     1   --> A'             
     e(  5 -  5) =     -7.61574  eV     1   --> A'             
     e(  6 -  6) =     -3.01485  eV     1   --> A''            
     e(  7 -  7) =     -2.04119  eV     1   --> A''            
     e(  8 -  8) =     -0.34063  eV     1   --> A'             
     e(  9 -  9) =      3.60320  eV     1   --> A'             
     e( 10 - 10) =      6.62401  eV     1   --> A'             
     e( 11 - 11) =      6.72942  eV     1   --> A'             
     e( 12 - 12) =      7.23140  eV     1   --> A''            
     e( 13 - 13) =      7.98892  eV     1   --> A'             
     e( 14 - 14) =      8.95296  eV     1   --> A'             
     e( 15 - 15) =     11.32802  eV     1   --> A'             
     e( 16 - 16) =     11.82224  eV     1   --> A''            

 **************************************************************************

 **************************************************************************

                    xk=(   0.35000,   0.00000,   0.00000  )

     Band symmetry, C_s (m)     point group:

     e(  1 -  1) =    -26.27394  eV     1   --> A'             
     e(  2 -  2) =    -16.75664  eV     1   --> A''            
     e(  3 -  3) =    -13.86275  eV     1   --> A'             
     e(  4 -  4) =    -11.99587  eV     1   --> A'             
     e(  5 -  5) =     -7.43126  eV     1   --> A'             
     e(  6 -  6) =     -2.98554  eV     1   --> A''            
     e(  7 -  7) =     -2.35948  eV     1   --> A''            
     e(  8 -  8) =     -0.60607  eV     1   --> A'             
     e(  9 -  9) =      3.82432  eV     1   --> A'             
     e( 10 - 10) =      6.89452  eV     1   --> A'             
     e( 11 - 11) =      7.00696  eV     1   --> A'             
     e( 12 - 12) =      7.37258  eV     1   --> A''            
     e( 13 - 13) =      8.25685  eV     1   --> A'             
     e( 14 - 14) =      9.22287  eV     1   --> A'             
     e( 15 - 15) =     11.57494  eV     1   --> A'             
     e( 16 - 16) =     12.07035  eV     1   --> A''            

 **************************************************************************

 **************************************************************************

                    xk=(   0.36667,   0.00000,   0.00000  )

     Band symmetry, C_s (m)     point group:

     e(  1 -  1) =    -26.07664  eV     1   --> A'             
     e(  2 -  2) =    -17.09701  eV     1   --> A''            
     e(  3 -  3) =    -14.12092  eV     1   --> A'             
     e(  4 -  4) =    -11.78504  eV     1   --> A'             
     e(  5 -  5) =     -7.24091  eV     1   --> A'             
     e(  6 -  6) =     -2.96479  eV     1   --> A''            
     e(  7 -  7) =     -2.67321  eV     1   --> A''            
     e(  8 -  8) =     -0.87171  eV     1   --> A'             
     e(  9 -  9) =      4.05688  eV     1   --> A'             
     e( 10 - 10) =      7.17777  eV     1   --> A'             
     e( 11 - 11) =      7.29710  eV     1   --> A'             
     e( 12 - 12) =      7.45840  eV     1   --> A''            
     e( 13 - 13) =      8.53547  eV     1   --> A'             
     e( 14 - 14) =      9.50555  eV     1   --> A'             
     e( 15 - 15) =     11.82724  eV     1   --> A'             
     e( 16 - 16) =     12.38511  eV     1   --> A''            

 **************************************************************************

 **************************************************************************

                    xk=(   0.38333,   0.00000,   0.00000  )

     Band symmetry, C_s (m)     point group:

     e(  1 -  1) =    -25.87139  eV     1   --> A'             
     e(  2 -  2) =    -17.43033  eV     1   --> A''            
     e(  3 -  3) =    -14.37729  eV     1   --> A'             
     e(  4 -  4) =    -11.56549  eV     1   --> A'             
     e(  5 -  5) =     -7.04528  eV     1   --> A'             
     e(  6 -  6) =     -2.98191  eV     1   --> A''            
     e(  7 -  7) =     -2.95267  eV     1   --> A''            
     e(  8 -  8) =     -1.13656  eV     1   --> A'             
     e(  9 -  9) =      4.30044  eV     1   --> A'             
     e( 10 - 10) =      7.47364  eV     1   --> A'             
     e( 11 - 11) =      7.50006  eV     1   --> A''            
     e( 12 - 12) =      7.59959  eV     1   --> A'             
     e( 13 - 13) =      8.82424  eV     1   --> A'             
     e( 14 - 14) =      9.80088  eV     1   --> A'             
     e( 15 - 15) =     12.08263  eV     1   --> A'             
     e( 16 - 16) =     12.75368  eV     1   --> A''            

 **************************************************************************

 **************************************************************************

                    xk=(   0.40000,   0.00000,   0.00000  )

     Band symmetry, C_s (m)     point group:

     e(  1 -  1) =    -25.65844  eV     1   --> A'             
     e(  2 -  2) =    -17.75624  eV     1   --> A''            
     e(  3 -  3) =    -14.63080  eV     1   --> A'             
     e(  4 -  4) =    -11.33746  eV     1   --> A'             
     e(  5 -  5) =     -6.84502  eV     1   --> A'             
     e(  6 -  6) =     -3.28506  eV     1   --> A''            
     e(  7 -  7) =     -2.94913  eV     1   --> A''            
     e(  8 -  8) =     -1.39965  eV     1   --> A'             
     e(  9 -  9) =      4.55460  eV     1   --> A'             
     e( 10 - 10) =      7.51013  eV     1   --> A''            
     e( 11 - 11) =      7.78201  eV     1   --> A'             
     e( 12 - 12) =      7.91406  eV     1   --> A'             
     e( 13 - 13) =      9.12241  eV     1   --> A'             
     e( 14 - 14) =     10.10872  eV     1   --> A'             
     e( 15 - 15) =     12.33792  eV     1   --> A'             
     e( 16 - 16) =     13.16199  eV     1   --> A''            

 **************************************************************************

 **************************************************************************

                    xk=(   0.41667,   0.00000,   0.00000  )

     Band symmetry, C_s (m)     point group:

     e(  1 -  1) =    -25.43813  eV     1   --> A'             
     e(  2 -  2) =    -18.07453  eV     1   --> A''            
     e(  3 -  3) =    -14.88051  eV     1   --> A'             
     e(  4 -  4) =    -11.10121  eV     1   --> A'             
     e(  5 -  5) =     -6.64087  eV     1   --> A'             
     e(  6 -  6) =     -3.58238  eV     1   --> A''            
     e(  7 -  7) =     -2.95438  eV     1   --> A''            
     e(  8 -  8) =     -1.66008  eV     1   --> A'             
     e(  9 -  9) =      4.81873  eV     1   --> A'             
     e( 10 - 10) =      7.50001  eV     1   --> A''            
     e( 11 - 11) =      8.10269  eV     1   --> A'             
     e( 12 - 12) =      8.24002  eV     1   --> A'             
     e( 13 - 13) =      9.42901  eV     1   --> A'             
     e( 14 - 14) =     10.42891  eV     1   --> A'             
     e( 15 - 15) =     12.58865  eV     1   --> A'             
     e( 16 - 16) =     13.59648  eV     1   --> A''            

 **************************************************************************

 **************************************************************************

                    xk=(   0.43333,   0.00000,   0.00000  )

     Band symmetry, C_s (m)     point group:

     e(  1 -  1) =    -25.21080  eV     1   --> A'             
     e(  2 -  2) =    -18.38492  eV     1   --> A''            
     e(  3 -  3) =    -15.12543  eV     1   --> A'             
     e(  4 -  4) =    -10.85704  eV     1   --> A'             
     e(  5 -  5) =     -6.43363  eV     1   --> A'             
     e(  6 -  6) =     -3.87343  eV     1   --> A''            
     e(  7 -  7) =     -2.96838  eV     1   --> A''            
     e(  8 -  8) =     -1.91694  eV     1   --> A'             
     e(  9 -  9) =      5.09212  eV     1   --> A'             
     e( 10 - 10) =      7.47923  eV     1   --> A''            
     e( 11 - 11) =      8.43550  eV     1   --> A'             
     e( 12 - 12) =      8.57669  eV     1   --> A'             
     e( 13 - 13) =      9.74271  eV     1   --> A'             
     e( 14 - 14) =     10.76123  eV     1   --> A'             
     e( 15 - 15) =     12.82878  eV     1   --> A'             
     e( 16 - 16) =     14.04779  eV     1   -->   ?

 **************************************************************************

 **************************************************************************

                    xk=(   0.45000,   0.00000,   0.00000  )

     Band symmetry, C_s (m)     point group:

     e(  1 -  1) =    -24.97693  eV     1   --> A'             
     e(  2 -  2) =    -18.68727  eV     1   --> A''            
     e(  3 -  3) =    -15.36459  eV     1   --> A'             
     e(  4 -  4) =    -10.60533  eV     1   --> A'             
     e(  5 -  5) =     -6.22418  eV     1   --> A'             
     e(  6 -  6) =     -4.15799  eV     1   --> A''            
     e(  7 -  7) =     -2.99106  eV     1   --> A''            
     e(  8 -  8) =     -2.16936  eV     1   --> A'             
     e(  9 -  9) =      5.37388  eV     1   --> A'             
     e( 10 - 10) =      7.45518  eV     1   --> A''            
     e( 11 - 11) =      8.78018  eV     1   --> A'             
     e( 12 - 12) =      8.92290  eV     1   --> A'             
     e( 13 - 13) =     10.06171  eV     1   --> A'             
     e( 14 - 14) =     11.10541  eV     1   --> A'             
     e( 15 - 15) =     13.05056  eV     1   --> A'             
     e( 16 - 16) =     14.26327  eV     1   -->   ?

 **************************************************************************

 **************************************************************************

                    xk=(   0.46667,   0.00000,   0.00000  )

     Band symmetry, C_s (m)     point group:

     e(  1 -  1) =    -24.73703  eV     1   --> A'             
     e(  2 -  2) =    -18.98140  eV     1   --> A''            
     e(  3 -  3) =    -15.59696  eV     1   --> A'             
     e(  4 -  4) =    -10.34650  eV     1   --> A'             
     e(  5 -  5) =     -6.01351  eV     1   --> A'             
     e(  6 -  6) =     -4.43574  eV     1   --> A''            
     e(  7 -  7) =     -3.02233  eV     1   --> A''            
     e(  8 -  8) =     -2.41644  eV     1   --> A'             
     e(  9 -  9) =      5.66295  eV     1   --> A'             
     e( 10 - 10) =      7.43348  eV     1   --> A''            
     e( 11 - 11) =      9.13640  eV     1   --> A'             
     e( 12 - 12) =      9.27676  eV     1   --> A'             
     e( 13 - 13) =     10.38361  eV     1   --> A'             
     e( 14 - 14) =     11.46109  eV     1   --> A'             
     e( 15 - 15) =     13.24560  eV     1   --> A'             
     e( 16 - 16) =     14.27358  eV     1   --> A''            

 **************************************************************************

 **************************************************************************

                    xk=(   0.48333,   0.00000,   0.00000  )

     Band symmetry, C_s (m)     point group:

     e(  1 -  1) =    -24.49172  eV     1   --> A'             
     e(  2 -  2) =    -19.26717  eV     1   --> A''            
     e(  3 -  3) =    -15.82152  eV     1   --> A'             
     e(  4 -  4) =    -10.08108  eV     1   --> A'             
     e(  5 -  5) =     -5.80271  eV     1   --> A'             
     e(  6 -  6) =     -4.70641  eV     1   --> A''            
     e(  7 -  7) =     -3.06200  eV     1   --> A''            
     e(  8 -  8) =     -2.65728  eV     1   --> A'             
     e(  9 -  9) =      5.95787  eV     1   --> A'             
     e( 10 - 10) =      7.41833  eV     1   --> A''            
     e( 11 - 11) =      9.50377  eV     1   --> A'             
     e( 12 - 12) =      9.63506  eV     1   --> A'             
     e( 13 - 13) =     10.70534  eV     1   --> A'             
     e( 14 - 14) =     11.82779  eV     1   --> A'             
     e( 15 - 15) =     13.40786  eV     1   --> A'             
     e( 16 - 16) =     14.27866  eV     1   --> A''            

 **************************************************************************

 **************************************************************************

                    xk=(   0.50000,   0.00000,   0.00000  )

     Band symmetry, C_s (m)     point group:

     e(  1 -  1) =    -24.24181  eV     1   --> A'             
     e(  2 -  2) =    -19.54447  eV     1   --> A''            
     e(  3 -  3) =    -16.03718  eV     1   --> A'             
     e(  4 -  4) =     -9.80975  eV     1   --> A'             
     e(  5 -  5) =     -5.59297  eV     1   --> A'             
     e(  6 -  6) =     -4.96988  eV     1   --> A''            
     e(  7 -  7) =     -3.10978  eV     1   --> A''            
     e(  8 -  8) =     -2.89092  eV     1   --> A'             
     e(  9 -  9) =      6.25692  eV     1   --> A'             
     e( 10 - 10) =      7.41277  eV     1   --> A''            
     e( 11 - 11) =      9.88174  eV     1   --> A'             
     e( 12 - 12) =      9.99216  eV     1   --> A'             
     e( 13 - 13) =     11.02348  eV     1   --> A'             
     e( 14 - 14) =     12.20483  eV     1   --> A'             
     e( 15 - 15) =     13.53893  eV     1   --> A'             
     e( 16 - 16) =     14.27686  eV     1   --> A''            

 **************************************************************************

 **************************************************************************

                    xk=(   0.51667,   0.00000,   0.00000  )

     Band symmetry, C_s (m)     point group:

     e(  1 -  1) =    -23.98820  eV     1   --> A'             
     e(  2 -  2) =    -19.81318  eV     1   --> A''            
     e(  3 -  3) =    -16.24266  eV     1   --> A'             
     e(  4 -  4) =     -9.53328  eV     1   --> A'             
     e(  5 -  5) =     -5.38561  eV     1   --> A'             
     e(  6 -  6) =     -5.22588  eV     1   --> A''            
     e(  7 -  7) =     -3.16530  eV     1   --> A''            
     e(  8 -  8) =     -3.11626  eV     1   --> A'             
     e(  9 -  9) =      6.55771  eV     1   --> A'             
     e( 10 - 10) =      7.41901  eV     1   --> A''            
     e( 11 - 11) =     10.26960  eV     1   --> A'             
     e( 12 - 12) =     10.33778  eV     1   --> A'             
     e( 13 - 13) =     11.33575  eV     1   --> A'             
     e( 14 - 14) =     12.59123  eV     1   --> A'             
     e( 15 - 15) =     13.65212  eV     1   --> A'             
     e( 16 - 16) =     14.26677  eV     1   --> A''            

 **************************************************************************

 **************************************************************************

                    xk=(   0.53333,   0.00000,   0.00000  )

     Band symmetry, C_s (m)     point group:

     e(  1 -  1) =    -23.73198  eV     1   --> A'             
     e(  2 -  2) =    -20.07323  eV     1   --> A''            
     e(  3 -  3) =    -16.43664  eV     1   --> A'             
     e(  4 -  4) =     -9.25274  eV     1   --> A'             
     e(  5 -  5) =     -5.47430  eV     1   --> A''            
     e(  6 -  6) =     -5.18203  eV     1   --> A'             
     e(  7 -  7) =     -3.33209  eV     1   --> A'             
     e(  8 -  8) =     -3.22803  eV     1   --> A''            
     e(  9 -  9) =      6.85703  eV     1   --> A'             
     e( 10 - 10) =      7.43858  eV     1   --> A''            
     e( 11 - 11) =     10.65367  eV     1   --> A'             
     e( 12 - 12) =     10.66639  eV     1   --> A'             
     e( 13 - 13) =     11.64477  eV     1   --> A'             
     e( 14 - 14) =     12.98549  eV     1   --> A'             
     e( 15 - 15) =     13.77086  eV     1   --> A'             
     e( 16 - 16) =     14.24692  eV     1   --> A''            

 **************************************************************************

 **************************************************************************

                    xk=(   0.55000,   0.00000,   0.00000  )

     Band symmetry, C_s (m)     point group:

     e(  1 -  1) =    -23.47458  eV     1   --> A'             
     e(  2 -  2) =    -20.32451  eV     1   --> A''            
     e(  3 -  3) =    -16.61752  eV     1   --> A'             
     e(  4 -  4) =     -8.96948  eV     1   --> A'             
     e(  5 -  5) =     -5.71494  eV     1   --> A''            
     e(  6 -  6) =     -4.98385  eV     1   --> A'             
     e(  7 -  7) =     -3.53692  eV     1   --> A'             
     e(  8 -  8) =     -3.29739  eV     1   --> A''            
     e(  9 -  9) =      7.15056  eV     1   --> A'             
     e( 10 - 10) =      7.47251  eV     1   --> A''            
     e( 11 - 11) =     10.91201  eV     1   --> A'             
     e( 12 - 12) =     11.07074  eV     1   --> A'             
     e( 13 - 13) =     11.96282  eV     1   --> A'             
     e( 14 - 14) =     13.38500  eV     1   --> A'             
     e( 15 - 15) =     13.92049  eV     1   --> A'             
     e( 16 - 16) =     14.21588  eV     1   --> A''            

 **************************************************************************

 **************************************************************************

                    xk=(   0.56667,   0.00000,   0.00000  )

     Band symmetry, C_s (m)     point group:

     e(  1 -  1) =    -23.21765  eV     1   --> A'             
     e(  2 -  2) =    -20.56693  eV     1   --> A''            
     e(  3 -  3) =    -16.78348  eV     1   --> A'             
     e(  4 -  4) =     -8.68526  eV     1   --> A'             
     e(  5 -  5) =     -5.94768  eV     1   --> A''            
     e(  6 -  6) =     -4.79273  eV     1   --> A'             
     e(  7 -  7) =     -3.72891  eV     1   --> A'             
     e(  8 -  8) =     -3.37272  eV     1   --> A''            
     e(  9 -  9) =      7.43224  eV     1   --> A'             
     e( 10 - 10) =      7.52139  eV     1   --> A''            
     e( 11 - 11) =     11.08498  eV     1   --> A'             
     e( 12 - 12) =     11.48072  eV     1   --> A'             
     e( 13 - 13) =     12.30833  eV     1   --> A'             
     e( 14 - 14) =     13.78460  eV     1   --> A'             
     e( 15 - 15) =     14.11696  eV     1   --> A'             
     e( 16 - 16) =     14.17227  eV     1   --> A''            

 **************************************************************************

 **************************************************************************

                    xk=(   0.58333,   0.00000,   0.00000  )

     Band symmetry, C_s (m)     point group:

     e(  1 -  1) =    -22.96327  eV     1   --> A'             
     e(  2 -  2) =    -20.80048  eV     1   --> A''            
     e(  3 -  3) =    -16.93239  eV     1   --> A'             
     e(  4 -  4) =     -8.40247  eV     1   --> A'             
     e(  5 -  5) =     -6.17244  eV     1   --> A''            
     e(  6 -  6) =     -4.61054  eV     1   --> A'             
     e(  7 -  7) =     -3.90566  eV     1   --> A'             
     e(  8 -  8) =     -3.45331  eV     1   --> A''            
     e(  9 -  9) =      7.58547  eV     1   --> A''            
     e( 10 - 10) =      7.69342  eV     1   --> A'             
     e( 11 - 11) =     11.16398  eV     1   --> A'             
     e( 12 - 12) =     11.89339  eV     1   --> A'             
     e( 13 - 13) =     12.69124  eV     1   --> A'             
     e( 14 - 14) =     14.11494  eV     1   --> A''            
     e( 15 - 15) =     14.17092  eV     1   --> A'             
     e( 16 - 16) =     14.35527  eV     1   --> A'             

 **************************************************************************

 **************************************************************************

                    xk=(   0.60000,   0.00000,   0.00000  )

     Band symmetry, C_s (m)     point group:

     e(  1 -  1) =    -22.71393  eV     1   --> A'             
     e(  2 -  2) =    -21.02510  eV     1   --> A''            
     e(  3 -  3) =    -17.06173  eV     1   --> A'             
     e(  4 -  4) =     -8.12434  eV     1   --> A'             
     e(  5 -  5) =     -6.38904  eV     1   --> A''            
     e(  6 -  6) =     -4.43925  eV     1   --> A'             
     e(  7 -  7) =     -4.06400  eV     1   --> A'             
     e(  8 -  8) =     -3.53836  eV     1   --> A''            
     e(  9 -  9) =      7.66486  eV     1   --> A''            
     e( 10 - 10) =      7.92175  eV     1   --> A'             
     e( 11 - 11) =     11.16427  eV     1   --> A'             
     e( 12 - 12) =     12.30420  eV     1   --> A'             
     e( 13 - 13) =     13.10698  eV     1   --> A'             
     e( 14 - 14) =     14.04329  eV     1   --> A''            
     e( 15 - 15) =     14.49473  eV     1   --> A'             
     e( 16 - 16) =     14.55971  eV     1   --> A'             

 **************************************************************************

 **************************************************************************

                    xk=(   0.61667,   0.00000,   0.00000  )

     Band symmetry, C_s (m)     point group:

     e(  1 -  1) =    -22.47262  eV     1   --> A'             
     e(  2 -  2) =    -21.24073  eV     1   --> A''            
     e(  3 -  3) =    -17.16858  eV     1   --> A'             
     e(  4 -  4) =     -7.85535  eV     1   --> A'             
     e(  5 -  5) =     -6.59742  eV     1   --> A''            
     e(  6 -  6) =     -4.28097  eV     1   --> A'             
     e(  7 -  7) =     -4.19961  eV     1   --> A'             
     e(  8 -  8) =     -3.62707  eV     1   --> A''            
     e(  9 -  9) =      7.75928  eV     1   --> A''            
     e( 10 - 10) =      8.10020  eV     1   --> A'             
     e( 11 - 11) =     11.11344  eV     1   --> A'             
     e( 12 - 12) =     12.70552  eV     1   --> A'             
     e( 13 - 13) =     13.54036  eV     1   --> A'             
     e( 14 - 14) =     13.95723  eV     1   --> A''            
     e( 15 - 15) =     14.46938  eV     1   --> A'             
     e( 16 - 16) =     14.61408  eV     1   --> A'             

 **************************************************************************

 **************************************************************************

                    xk=(   0.63333,   0.00000,   0.00000  )

     Band symmetry, C_s (m)     point group:

     e(  1 -  1) =    -22.24279  eV     1   --> A'             
     e(  2 -  2) =    -21.44735  eV     1   --> A''            
     e(  3 -  3) =    -17.24953  eV     1   --> A'             
     e(  4 -  4) =     -7.60151  eV     1   --> A'             
     e(  5 -  5) =     -6.79750  eV     1   --> A''            
     e(  6 -  6) =     -4.30665  eV     1   --> A'             
     e(  7 -  7) =     -4.13793  eV     1   --> A'             
     e(  8 -  8) =     -3.71859  eV     1   --> A''            
     e(  9 -  9) =      7.86845  eV     1   --> A''            
     e( 10 - 10) =      8.20715  eV     1   --> A'             
     e( 11 - 11) =     11.04347  eV     1   --> A'             
     e( 12 - 12) =     13.08352  eV     1   --> A'             
     e( 13 - 13) =     13.85743  eV     1   --> A''            
     e( 14 - 14) =     13.93132  eV     1   --> A'             
     e( 15 - 15) =     14.34908  eV     1   --> A'             
     e( 16 - 16) =     14.54555  eV     1   --> A'             

 **************************************************************************

 **************************************************************************

                    xk=(   0.65000,   0.00000,   0.00000  )

     Band symmetry, C_s (m)     point group:

     e(  1 -  1) =    -22.02833  eV     1   --> A'             
     e(  2 -  2) =    -21.64489  eV     1   --> A''            
     e(  3 -  3) =    -17.30089  eV     1   --> A'             
     e(  4 -  4) =     -7.37069  eV     1   --> A'             
     e(  5 -  5) =     -6.98914  eV     1   --> A''            
     e(  6 -  6) =     -4.37753  eV     1   --> A'             
     e(  7 -  7) =     -4.01238  eV     1   --> A'             
     e(  8 -  8) =     -3.81209  eV     1   --> A''            
     e(  9 -  9) =      7.99191  eV     1   --> A''            
     e( 10 - 10) =      8.22082  eV     1   --> A'             
     e( 11 - 11) =     10.98624  eV     1   --> A'             
     e( 12 - 12) =     13.40970  eV     1   --> A'             
     e( 13 - 13) =     13.74525  eV     1   --> A''            
     e( 14 - 14) =     14.02448  eV     1   --> A'             
     e( 15 - 15) =     14.44094  eV     1   --> A'             
     e( 16 - 16) =     14.59848  eV     1   --> A'             

 **************************************************************************

 **************************************************************************

                    xk=(   0.66667,   0.00000,   0.00000  )

     point group C_3v (3m)  
     there are  3 classes
     the character table:

       E     2C3   3s_v 
A_1    1.00  1.00  1.00
A_2    1.00  1.00 -1.00
E      2.00 -1.00  0.00

     the symmetry operations in each class and the name of the first element:

     E        1
                                                                 
     2C3      2    3
                                                                 
     3s_v     4    6    5
                                                                 

     Band symmetry, C_3v (3m)   point group:

     e(  1 -  2) =    -21.83333  eV     2   --> E    L_3       
     e(  3 -  3) =    -17.31881  eV     1   --> A_1  L_1       
     e(  4 -  5) =     -7.17230  eV     2   --> E    L_3       
     e(  6 -  6) =     -4.40322  eV     1   --> A_1  L_1       
     e(  7 -  8) =     -3.90671  eV     2   --> E    L_3       
     e(  9 - 10) =      8.12912  eV     2   --> E    L_3       
     e( 11 - 11) =     10.96482  eV     1   --> A_1  L_1       
     e( 12 - 13) =     13.62264  eV     2   --> E    L_3       
     e( 14 - 14) =     14.00378  eV     1   --> A_1  L_1       
     e( 15 - 15) =     14.38809  eV     1   --> A_1  L_1       
     e( 16 - 16) =     14.98609  eV     1   -->   ?

 **************************************************************************

 **************************************************************************

                    xk=(   0.65833,   0.01443,   0.00000  )

     point group C_s (m)    
     there are  2 classes
     the character table:

       E     s    
A'     1.00  1.00
A''    1.00 -1.00

     the symmetry operations in each class and the name of the first element:

     E        1
                                                                 
     s        2
                                                                 

     Band symmetry, C_s (m)     point group:

     e(  1 -  1) =    -22.01269  eV     1   --> A''            
     e(  2 -  2) =    -21.66170  eV     1   --> A'             
     e(  3 -  3) =    -17.29981  eV     1   --> A'             
     e(  4 -  4) =     -7.34692  eV     1   --> A''            
     e(  5 -  5) =     -7.01570  eV     1   --> A'             
     e(  6 -  6) =     -4.37488  eV     1   --> A'             
     e(  7 -  7) =     -4.00170  eV     1   --> A''            
     e(  8 -  8) =     -3.82327  eV     1   --> A'             
     e(  9 -  9) =      7.93842  eV     1   --> A'             
     e( 10 - 10) =      8.27945  eV     1   --> A''            
     e( 11 - 11) =     10.98518  eV     1   --> A'             
     e( 12 - 12) =     13.49189  eV     1   --> A''            
     e( 13 - 13) =     13.65514  eV     1   --> A'             
     e( 14 - 14) =     14.03229  eV     1   --> A'             
     e( 15 - 15) =     14.44341  eV     1   --> A'             
     e( 16 - 16) =     14.72297  eV     1   --> A''            

 **************************************************************************

 **************************************************************************

                    xk=(   0.65000,   0.02887,   0.00000  )

     Band symmetry, C_s (m)     point group:

     e(  1 -  1) =    -22.18293  eV     1   --> A''            
     e(  2 -  2) =    -21.51649  eV     1   --> A'             
     e(  3 -  3) =    -17.24120  eV     1   --> A'             
     e(  4 -  4) =     -7.51292  eV     1   --> A''            
     e(  5 -  5) =     -6.90703  eV     1   --> A'             
     e(  6 -  6) =     -4.28693  eV     1   --> A'             
     e(  7 -  7) =     -4.09625  eV     1   --> A''            
     e(  8 -  8) =     -3.76430  eV     1   --> A'             
     e(  9 -  9) =      7.67067  eV     1   --> A'             
     e( 10 - 10) =      8.44224  eV     1   --> A''            
     e( 11 - 11) =     11.03851  eV     1   --> A'             
     e( 12 - 12) =     13.35555  eV     1   --> A''            
     e( 13 - 13) =     13.55612  eV     1   --> A'             
     e( 14 - 14) =     14.10473  eV     1   --> A'             
     e( 15 - 15) =     14.47317  eV     1   -->   ?
     e( 16 - 16) =     14.53860  eV     1   --> A'             

 **************************************************************************

 **************************************************************************

                    xk=(   0.64167,   0.04330,   0.00000  )

     Band symmetry, C_s (m)     point group:

     e(  1 -  1) =    -22.34402  eV     1   --> A''            
     e(  2 -  2) =    -21.39946  eV     1   --> A'             
     e(  3 -  3) =    -17.14182  eV     1   --> A'             
     e(  4 -  4) =     -7.67023  eV     1   --> A''            
     e(  5 -  5) =     -6.84638  eV     1   --> A'             
     e(  6 -  6) =     -4.18963  eV     1   --> A''            
     e(  7 -  7) =     -4.14002  eV     1   --> A'             
     e(  8 -  8) =     -3.73191  eV     1   --> A'             
     e(  9 -  9) =      7.35251  eV     1   --> A'             
     e( 10 - 10) =      8.61681  eV     1   --> A''            
     e( 11 - 11) =     11.11164  eV     1   --> A'             
     e( 12 - 12) =     13.21613  eV     1   --> A''            
     e( 13 - 13) =     13.40628  eV     1   --> A'             
     e( 14 - 14) =     14.16099  eV     1   --> A'             
     e( 15 - 15) =     14.23674  eV     1   --> A''            
     e( 16 - 16) =     14.57719  eV     1   --> A'             

 **************************************************************************

 **************************************************************************

                    xk=(   0.63333,   0.05774,   0.00000  )

     Band symmetry, C_s (m)     point group:

     e(  1 -  1) =    -22.49595  eV     1   --> A''            
     e(  2 -  2) =    -21.31059  eV     1   --> A'             
     e(  3 -  3) =    -17.00238  eV     1   --> A'             
     e(  4 -  4) =     -7.81883  eV     1   --> A''            
     e(  5 -  5) =     -6.82759  eV     1   --> A'             
     e(  6 -  6) =     -4.28115  eV     1   --> A''            
     e(  7 -  7) =     -3.94120  eV     1   --> A'             
     e(  8 -  8) =     -3.72790  eV     1   --> A'             
     e(  9 -  9) =      7.00739  eV     1   --> A'             
     e( 10 - 10) =      8.80229  eV     1   --> A''            
     e( 11 - 11) =     11.19402  eV     1   --> A'             
     e( 12 - 12) =     13.07598  eV     1   --> A''            
     e( 13 - 13) =     13.23998  eV     1   --> A'             
     e( 14 - 14) =     14.01403  eV     1   --> A''            
     e( 15 - 15) =     14.10893  eV     1   --> A'             
     e( 16 - 16) =     14.53176  eV     1   --> A'             

 **************************************************************************

 **************************************************************************

                    xk=(   0.62500,   0.07217,   0.00000  )

     Band symmetry, C_s (m)     point group:

     e(  1 -  1) =    -22.63872  eV     1   --> A''            
     e(  2 -  2) =    -21.24817  eV     1   --> A'             
     e(  3 -  3) =    -16.82551  eV     1   --> A'             
     e(  4 -  4) =     -7.95864  eV     1   --> A''            
     e(  5 -  5) =     -6.84108  eV     1   --> A'             
     e(  6 -  6) =     -4.37016  eV     1   --> A''            
     e(  7 -  7) =     -3.75367  eV     1   --> A'             
     e(  8 -  8) =     -3.70111  eV     1   --> A'             
     e(  9 -  9) =      6.65331  eV     1   --> A'             
     e( 10 - 10) =      8.99790  eV     1   --> A''            
     e( 11 - 11) =     11.27933  eV     1   --> A'             
     e( 12 - 12) =     12.93720  eV     1   --> A''            
     e( 13 - 13) =     13.06947  eV     1   --> A'             
     e( 14 - 14) =     13.80512  eV     1   --> A''            
     e( 15 - 15) =     13.97475  eV     1   --> A'             
     e( 16 - 16) =     14.40943  eV     1   --> A'             

 **************************************************************************

 **************************************************************************

                    xk=(   0.61667,   0.08660,   0.00000  )

     Band symmetry, C_s (m)     point group:

     e(  1 -  1) =    -22.77230  eV     1   --> A''            
     e(  2 -  2) =    -21.20910  eV     1   --> A'             
     e(  3 -  3) =    -16.61534  eV     1   --> A'             
     e(  4 -  4) =     -8.08964  eV     1   --> A''            
     e(  5 -  5) =     -6.87707  eV     1   --> A'             
     e(  6 -  6) =     -4.45605  eV     1   --> A''            
     e(  7 -  7) =     -3.81000  eV     1   --> A'             
     e(  8 -  8) =     -3.43081  eV     1   --> A'             
     e(  9 -  9) =      6.30340  eV     1   --> A'             
     e( 10 - 10) =      9.20280  eV     1   --> A''            
     e( 11 - 11) =     11.36405  eV     1   --> A'             
     e( 12 - 12) =     12.80163  eV     1   --> A''            
     e( 13 - 13) =     12.89963  eV     1   --> A'             
     e( 14 - 14) =     13.61016  eV     1   --> A''            
     e( 15 - 15) =     13.82031  eV     1   --> A'             
     e( 16 - 16) =     14.22869  eV     1   --> A'             

 **************************************************************************

 **************************************************************************

                    xk=(   0.60833,   0.10104,   0.00000  )

     Band symmetry, C_s (m)     point group:

     e(  1 -  1) =    -22.89670  eV     1   --> A''            
     e(  2 -  2) =    -21.18947  eV     1   --> A'             
     e(  3 -  3) =    -16.37706  eV     1   --> A'             
     e(  4 -  4) =     -8.21177  eV     1   --> A''            
     e(  5 -  5) =     -6.92737  eV     1   --> A'             
     e(  6 -  6) =     -4.53826  eV     1   --> A''            
     e(  7 -  7) =     -3.89688  eV     1   --> A'             
     e(  8 -  8) =     -3.13999  eV     1   --> A'             
     e(  9 -  9) =      5.96705  eV     1   --> A'             
     e( 10 - 10) =      9.41605  eV     1   --> A''            
     e( 11 - 11) =     11.44593  eV     1   --> A'             
     e( 12 - 12) =     12.67080  eV     1   --> A''            
     e( 13 - 13) =     12.73221  eV     1   --> A'             
     e( 14 - 14) =     13.42934  eV     1   --> A''            
     e( 15 - 15) =     13.66841  eV     1   --> A'             
     e( 16 - 16) =     14.00533  eV     1   --> A'             

 **************************************************************************

 **************************************************************************

                    xk=(   0.60000,   0.11547,   0.00000  )

     Band symmetry, C_s (m)     point group:

     e(  1 -  1) =    -23.01188  eV     1   --> A''            
     e(  2 -  2) =    -21.18521  eV     1   --> A'             
     e(  3 -  3) =    -16.11637  eV     1   --> A'             
     e(  4 -  4) =     -8.32499  eV     1   --> A''            
     e(  5 -  5) =     -6.98574  eV     1   --> A'             
     e(  6 -  6) =     -4.61625  eV     1   --> A''            
     e(  7 -  7) =     -4.01341  eV     1   --> A'             
     e(  8 -  8) =     -2.83669  eV     1   --> A'             
     e(  9 -  9) =      5.65082  eV     1   --> A'             
     e( 10 - 10) =      9.63664  eV     1   --> A''            
     e( 11 - 11) =     11.52302  eV     1   --> A'             
     e( 12 - 12) =     12.54605  eV     1   --> A''            
     e( 13 - 13) =     12.56717  eV     1   --> A'             
     e( 14 - 14) =     13.26289  eV     1   --> A''            
     e( 15 - 15) =     13.52675  eV     1   --> A'             
     e( 16 - 16) =     13.75332  eV     1   --> A'             

 **************************************************************************

 **************************************************************************

                    xk=(   0.59167,   0.12990,   0.00000  )

     Band symmetry, C_s (m)     point group:

     e(  1 -  1) =    -23.11785  eV     1   --> A''            
     e(  2 -  2) =    -21.19246  eV     1   --> A'             
     e(  3 -  3) =    -15.83912  eV     1   --> A'             
     e(  4 -  4) =     -8.42927  eV     1   --> A''            
     e(  5 -  5) =     -7.04772  eV     1   --> A'             
     e(  6 -  6) =     -4.68962  eV     1   --> A''            
     e(  7 -  7) =     -4.15757  eV     1   --> A'             
     e(  8 -  8) =     -2.52754  eV     1   --> A'             
     e(  9 -  9) =      5.35909  eV     1   --> A'             
     e( 10 - 10) =      9.86329  eV     1   --> A''            
     e( 11 - 11) =     11.59331  eV     1   --> A'             
     e( 12 - 12) =     12.40289  eV     1   --> A'             
     e( 13 - 13) =     12.42843  eV     1   --> A''            
     e( 14 - 14) =     13.11111  eV     1   --> A''            
     e( 15 - 15) =     13.39853  eV     1   --> A'             
     e( 16 - 16) =     13.48575  eV     1   --> A'             

 **************************************************************************

 **************************************************************************

                    xk=(   0.58333,   0.14434,   0.00000  )

     Band symmetry, C_s (m)     point group:

     e(  1 -  1) =    -23.21462  eV     1   --> A''            
     e(  2 -  2) =    -21.20777  eV     1   --> A'             
     e(  3 -  3) =    -15.55113  eV     1   --> A'             
     e(  4 -  4) =     -8.52458  eV     1   --> A''            
     e(  5 -  5) =     -7.11010  eV     1   --> A'             
     e(  6 -  6) =     -4.75791  eV     1   --> A''            
     e(  7 -  7) =     -4.32624  eV     1   --> A'             
     e(  8 -  8) =     -2.21827  eV     1   --> A'             
     e(  9 -  9) =      5.09452  eV     1   --> A'             
     e( 10 - 10) =     10.09458  eV     1   --> A''            
     e( 11 - 11) =     11.65478  eV     1   --> A'             
     e( 12 - 12) =     12.23600  eV     1   --> A'             
     e( 13 - 13) =     12.31884  eV     1   --> A''            
     e( 14 - 14) =     12.97445  eV     1   --> A''            
     e( 15 - 15) =     13.21626  eV     1   --> A'             
     e( 16 - 16) =     13.28528  eV     1   --> A'             

 **************************************************************************

 **************************************************************************

                    xk=(   0.57500,   0.15877,   0.00000  )

     Band symmetry, C_s (m)     point group:

     e(  1 -  1) =    -23.30218  eV     1   --> A''            
     e(  2 -  2) =    -21.22826  eV     1   --> A'             
     e(  3 -  3) =    -15.25823  eV     1   --> A'             
     e(  4 -  4) =     -8.61092  eV     1   --> A''            
     e(  5 -  5) =     -7.17057  eV     1   --> A'             
     e(  6 -  6) =     -4.82077  eV     1   --> A''            
     e(  7 -  7) =     -4.51502  eV     1   --> A'             
     e(  8 -  8) =     -1.91416  eV     1   --> A'             
     e(  9 -  9) =      4.85848  eV     1   --> A'             
     e( 10 - 10) =     10.32872  eV     1   --> A''            
     e( 11 - 11) =     11.70577  eV     1   --> A'             
     e( 12 - 12) =     12.06153  eV     1   --> A'             
     e( 13 - 13) =     12.21800  eV     1   --> A''            
     e( 14 - 14) =     12.85359  eV     1   --> A''            
     e( 15 - 15) =     12.95947  eV     1   --> A'             
     e( 16 - 16) =     13.18760  eV     1   --> A'             

 **************************************************************************

 **************************************************************************

                    xk=(   0.56667,   0.17321,   0.00000  )

     Band symmetry, C_s (m)     point group:

     e(  1 -  1) =    -23.38052  eV     1   --> A''            
     e(  2 -  2) =    -21.25153  eV     1   --> A'             
     e(  3 -  3) =    -14.96638  eV     1   --> A'             
     e(  4 -  4) =     -8.68819  eV     1   --> A''            
     e(  5 -  5) =     -7.22746  eV     1   --> A'             
     e(  6 -  6) =     -4.87785  eV     1   --> A''            
     e(  7 -  7) =     -4.71834  eV     1   --> A'             
     e(  8 -  8) =     -1.62027  eV     1   --> A'             
     e(  9 -  9) =      4.65129  eV     1   --> A'             
     e( 10 - 10) =     10.56340  eV     1   --> A''            
     e( 11 - 11) =     11.74528  eV     1   --> A'             
     e( 12 - 12) =     11.87442  eV     1   --> A'             
     e( 13 - 13) =     12.12651  eV     1   --> A''            
     e( 14 - 14) =     12.72950  eV     1   --> A'             
     e( 15 - 15) =     12.74954  eV     1   --> A''            
     e( 16 - 16) =     13.10555  eV     1   --> A'             

 **************************************************************************

 **************************************************************************

                    xk=(   0.55833,   0.18764,   0.00000  )

     Band symmetry, C_s (m)     point group:

     e(  1 -  1) =    -23.44966  eV     1   --> A''            
     e(  2 -  2) =    -21.27566  eV     1   --> A'             
     e(  3 -  3) =    -14.68185  eV     1   --> A'             
     e(  4 -  4) =     -8.75646  eV     1   --> A''            
     e(  5 -  5) =     -7.27963  eV     1   --> A'             
     e(  6 -  6) =     -4.92947  eV     1   --> A'             
     e(  7 -  7) =     -4.92889  eV     1   --> A''            
     e(  8 -  8) =     -1.34180  eV     1   --> A'             
     e(  9 -  9) =      4.47246  eV     1   --> A'             
     e( 10 - 10) =     10.79529  eV     1   --> A''            
     e( 11 - 11) =     11.67334  eV     1   --> A'             
     e( 12 - 12) =     11.77327  eV     1   --> A'             
     e( 13 - 13) =     12.04484  eV     1   --> A''            
     e( 14 - 14) =     12.53628  eV     1   --> A'             
     e( 15 - 15) =     12.66395  eV     1   --> A''            
     e( 16 - 16) =     13.03810  eV     1   --> A'             

 **************************************************************************

 **************************************************************************

                    xk=(   0.55000,   0.20207,   0.00000  )

     Band symmetry, C_s (m)     point group:

     e(  1 -  1) =    -23.50958  eV     1   --> A''            
     e(  2 -  2) =    -21.29912  eV     1   --> A'             
     e(  3 -  3) =    -14.41137  eV     1   --> A'             
     e(  4 -  4) =     -8.81565  eV     1   --> A''            
     e(  5 -  5) =     -7.32615  eV     1   --> A'             
     e(  6 -  6) =     -5.14064  eV     1   --> A'             
     e(  7 -  7) =     -4.97360  eV     1   --> A''            
     e(  8 -  8) =     -1.08403  eV     1   --> A'             
     e(  9 -  9) =      4.32108  eV     1   --> A'             
     e( 10 - 10) =     11.01976  eV     1   --> A''            
     e( 11 - 11) =     11.46425  eV     1   --> A'             
     e( 12 - 12) =     11.79082  eV     1   --> A'             
     e( 13 - 13) =     11.97339  eV     1   --> A''            
     e( 14 - 14) =     12.38206  eV     1   --> A'             
     e( 15 - 15) =     12.59947  eV     1   --> A''            
     e( 16 - 16) =     12.98430  eV     1   --> A'             

 **************************************************************************

 **************************************************************************

                    xk=(   0.54167,   0.21651,   0.00000  )

     Band symmetry, C_s (m)     point group:

     e(  1 -  1) =    -23.56028  eV     1   --> A''            
     e(  2 -  2) =    -21.32070  eV     1   --> A'             
     e(  3 -  3) =    -14.16218  eV     1   --> A'             
     e(  4 -  4) =     -8.86576  eV     1   --> A''            
     e(  5 -  5) =     -7.36638  eV     1   --> A'             
     e(  6 -  6) =     -5.34312  eV     1   --> A'             
     e(  7 -  7) =     -5.01179  eV     1   --> A''            
     e(  8 -  8) =     -0.85250  eV     1   --> A'             
     e(  9 -  9) =      4.19592  eV     1   --> A'             
     e( 10 - 10) =     11.22982  eV     1   --> A''            
     e( 11 - 11) =     11.25909  eV     1   --> A'             
     e( 12 - 12) =     11.79985  eV     1   --> A'             
     e( 13 - 13) =     11.91246  eV     1   --> A''            
     e( 14 - 14) =     12.26283  eV     1   --> A'             
     e( 15 - 15) =     12.56033  eV     1   --> A''            
     e( 16 - 16) =     12.94250  eV     1   --> A'             

 **************************************************************************

 **************************************************************************

                    xk=(   0.53333,   0.23094,   0.00000  )

     Band symmetry, C_s (m)     point group:

     e(  1 -  1) =    -23.60177  eV     1   --> A''            
     e(  2 -  2) =    -21.33950  eV     1   --> A'             
     e(  3 -  3) =    -13.94214  eV     1   --> A'             
     e(  4 -  4) =     -8.90678  eV     1   --> A''            
     e(  5 -  5) =     -7.39987  eV     1   --> A'             
     e(  6 -  6) =     -5.52759  eV     1   --> A'             
     e(  7 -  7) =     -5.04329  eV     1   --> A''            
     e(  8 -  8) =     -0.65280  eV     1   --> A'             
     e(  9 -  9) =      4.09568  eV     1   --> A'             
     e( 10 - 10) =     11.07123  eV     1   --> A'             
     e( 11 - 11) =     11.41548  eV     1   --> A''            
     e( 12 - 12) =     11.80277  eV     1   --> A'             
     e( 13 - 13) =     11.86231  eV     1   --> A''            
     e( 14 - 14) =     12.17264  eV     1   --> A'             
     e( 15 - 15) =     12.55258  eV     1   --> A''            
     e( 16 - 16) =     12.91097  eV     1   -->   ?

 **************************************************************************

 **************************************************************************

                    xk=(   0.52500,   0.24537,   0.00000  )

     Band symmetry, C_s (m)     point group:

     e(  1 -  1) =    -23.63405  eV     1   --> A''            
     e(  2 -  2) =    -21.35478  eV     1   --> A'             
     e(  3 -  3) =    -13.75936  eV     1   --> A'             
     e(  4 -  4) =     -8.93870  eV     1   --> A''            
     e(  5 -  5) =     -7.42624  eV     1   --> A'             
     e(  6 -  6) =     -5.68443  eV     1   --> A'             
     e(  7 -  7) =     -5.06793  eV     1   --> A''            
     e(  8 -  8) =     -0.49039  eV     1   --> A'             
     e(  9 -  9) =      4.01915  eV     1   --> A'             
     e( 10 - 10) =     10.91257  eV     1   --> A'             
     e( 11 - 11) =     11.56473  eV     1   --> A''            
     e( 12 - 12) =     11.80208  eV     1   --> A'             
     e( 13 - 13) =     11.82311  eV     1   --> A''            
     e( 14 - 14) =     12.10656  eV     1   --> A'             
     e( 15 - 15) =     12.58225  eV     1   --> A''            
     e( 16 - 16) =     12.88890  eV     1   -->   ?

 **************************************************************************

 **************************************************************************

                    xk=(   0.51667,   0.25981,   0.00000  )

     Band symmetry, C_s (m)     point group:

     e(  1 -  1) =    -23.65710  eV     1   --> A''            
     e(  2 -  2) =    -21.36605  eV     1   --> A'             
     e(  3 -  3) =    -13.62172  eV     1   --> A'             
     e(  4 -  4) =     -8.96150  eV     1   --> A''            
     e(  5 -  5) =     -7.44524  eV     1   --> A'             
     e(  6 -  6) =     -5.80451  eV     1   --> A'             
     e(  7 -  7) =     -5.08561  eV     1   --> A''            
     e(  8 -  8) =     -0.37025  eV     1   --> A'             
     e(  9 -  9) =      3.96528  eV     1   --> A'             
     e( 10 - 10) =     10.79245  eV     1   --> A'             
     e( 11 - 11) =     11.66847  eV     1   --> A''            
     e( 12 - 12) =     11.79502  eV     1   --> A''            
     e( 13 - 13) =     11.79993  eV     1   --> A'             
     e( 14 - 14) =     12.06128  eV     1   --> A'             
     e( 15 - 15) =     12.64802  eV     1   --> A''            
     e( 16 - 16) =     12.87274  eV     1   -->   ?

 **************************************************************************

 **************************************************************************

                    xk=(   0.50833,   0.27424,   0.00000  )

     Band symmetry, C_s (m)     point group:

     e(  1 -  1) =    -23.67092  eV     1   --> A''            
     e(  2 -  2) =    -21.37294  eV     1   --> A'             
     e(  3 -  3) =    -13.53600  eV     1   --> A'             
[...]
     e( 12 - 12) =      6.15215  eV     1   --> A''            
     e( 13 - 13) =      7.07568  eV     1   --> A'             
     e( 14 - 14) =      8.03293  eV     1   --> A'             
     e( 15 - 15) =     10.46366  eV     1   --> A'             
     e( 16 - 16) =     11.33865  eV     1   --> A'             

 **************************************************************************

 **************************************************************************

                    xk=(   0.21667,   0.12509,   0.00000  )

     Band symmetry, C_s (m)     point group:

     e(  1 -  1) =    -27.27826  eV     1   --> A'             
     e(  2 -  2) =    -14.85149  eV     1   --> A'             
     e(  3 -  3) =    -13.06702  eV     1   --> A'             
     e(  4 -  4) =    -11.82411  eV     1   --> A''            
     e(  5 -  5) =     -8.55259  eV     1   --> A'             
     e(  6 -  6) =     -3.68201  eV     1   --> A'             
     e(  7 -  7) =     -0.73652  eV     1   --> A'             
     e(  8 -  8) =      1.41458  eV     1   --> A''            
     e(  9 -  9) =      3.05897  eV     1   --> A'             
     e( 10 - 10) =      5.46573  eV     1   --> A'             
     e( 11 - 11) =      5.54221  eV     1   --> A'             
     e( 12 - 12) =      5.62173  eV     1   --> A''            
     e( 13 - 13) =      6.83042  eV     1   --> A'             
     e( 14 - 14) =      7.79621  eV     1   --> A'             
     e( 15 - 15) =     10.22675  eV     1   --> A'             
     e( 16 - 16) =     11.49446  eV     1   --> A'             

 **************************************************************************

 **************************************************************************

                    xk=(   0.20000,   0.11547,   0.00000  )

     Band symmetry, C_s (m)     point group:

     e(  1 -  1) =    -27.43526  eV     1   --> A'             
     e(  2 -  2) =    -14.37040  eV     1   --> A'             
     e(  3 -  3) =    -13.23442  eV     1   --> A'             
     e(  4 -  4) =    -11.65057  eV     1   --> A''            
     e(  5 -  5) =     -8.69008  eV     1   --> A'             
     e(  6 -  6) =     -3.68657  eV     1   --> A'             
     e(  7 -  7) =     -0.29322  eV     1   --> A'             
     e(  8 -  8) =      1.58910  eV     1   --> A''            
     e(  9 -  9) =      2.84389  eV     1   --> A'             
     e( 10 - 10) =      5.11009  eV     1   --> A''            
     e( 11 - 11) =      5.24478  eV     1   --> A'             
     e( 12 - 12) =      5.31197  eV     1   --> A'             
     e( 13 - 13) =      6.60185  eV     1   --> A'             
     e( 14 - 14) =      7.57670  eV     1   --> A'             
     e( 15 - 15) =     10.00503  eV     1   --> A'             
     e( 16 - 16) =     11.44571  eV     1   --> A'             

 **************************************************************************

 **************************************************************************

                    xk=(   0.18333,   0.10585,   0.00000  )

     Band symmetry, C_s (m)     point group:

     e(  1 -  1) =    -27.58011  eV     1   --> A'             
     e(  2 -  2) =    -13.89173  eV     1   --> A'             
     e(  3 -  3) =    -13.38882  eV     1   --> A'             
     e(  4 -  4) =    -11.47583  eV     1   --> A''            
     e(  5 -  5) =     -8.81845  eV     1   --> A'             
     e(  6 -  6) =     -3.71621  eV     1   --> A'             
     e(  7 -  7) =      0.14026  eV     1   --> A'             
     e(  8 -  8) =      1.76496  eV     1   --> A''            
     e(  9 -  9) =      2.63524  eV     1   --> A'             
     e( 10 - 10) =      4.62046  eV     1   --> A''            
     e( 11 - 11) =      5.04132  eV     1   --> A'             
     e( 12 - 12) =      5.09951  eV     1   --> A'             
     e( 13 - 13) =      6.39022  eV     1   --> A'             
     e( 14 - 14) =      7.37450  eV     1   --> A'             
     e( 15 - 15) =      9.79893  eV     1   --> A'             
     e( 16 - 16) =     11.28606  eV     1   --> A'             

 **************************************************************************

 **************************************************************************

                    xk=(   0.16667,   0.09623,   0.00000  )

     Band symmetry, C_s (m)     point group:

     e(  1 -  1) =    -27.71268  eV     1   --> A'             
     e(  2 -  2) =    -13.53012  eV     1   --> A'             
     e(  3 -  3) =    -13.41798  eV     1   --> A'             
     e(  4 -  4) =    -11.30196  eV     1   --> A''            
     e(  5 -  5) =     -8.93720  eV     1   --> A'             
     e(  6 -  6) =     -3.77339  eV     1   --> A'             
     e(  7 -  7) =      0.56074  eV     1   --> A'             
     e(  8 -  8) =      1.94014  eV     1   --> A''            
     e(  9 -  9) =      2.43984  eV     1   --> A'             
     e( 10 - 10) =      4.15597  eV     1   --> A''            
     e( 11 - 11) =      4.85541  eV     1   --> A'             
     e( 12 - 12) =      4.90495  eV     1   --> A'             
     e( 13 - 13) =      6.19573  eV     1   --> A'             
     e( 14 - 14) =      7.18971  eV     1   --> A'             
     e( 15 - 15) =      9.60881  eV     1   --> A'             
     e( 16 - 16) =     11.13003  eV     1   --> A'             

 **************************************************************************

 **************************************************************************

                    xk=(   0.15000,   0.08660,   0.00000  )

     Band symmetry, C_s (m)     point group:

     e(  1 -  1) =    -27.83288  eV     1   --> A'             
     e(  2 -  2) =    -13.65819  eV     1   --> A'             
     e(  3 -  3) =    -12.95218  eV     1   --> A'             
     e(  4 -  4) =    -11.13125  eV     1   --> A''            
     e(  5 -  5) =     -9.04586  eV     1   --> A'             
     e(  6 -  6) =     -3.85953  eV     1   --> A'             
     e(  7 -  7) =      0.96465  eV     1   --> A'             
     e(  8 -  8) =      2.11233  eV     1   --> A''            
     e(  9 -  9) =      2.26328  eV     1   --> A'             
     e( 10 - 10) =      3.71996  eV     1   --> A''            
     e( 11 - 11) =      4.68709  eV     1   --> A'             
     e( 12 - 12) =      4.72838  eV     1   --> A'             
     e( 13 - 13) =      6.01861  eV     1   --> A'             
     e( 14 - 14) =      7.02240  eV     1   --> A'             
     e( 15 - 15) =      9.43503  eV     1   --> A'             
     e( 16 - 16) =     10.98349  eV     1   --> A'             

 **************************************************************************

 **************************************************************************

                    xk=(   0.13333,   0.07698,   0.00000  )

     Band symmetry, C_s (m)     point group:

     e(  1 -  1) =    -27.94062  eV     1   --> A'             
     e(  2 -  2) =    -13.77300  eV     1   --> A'             
     e(  3 -  3) =    -12.49809  eV     1   --> A'             
     e(  4 -  4) =    -10.96633  eV     1   --> A''            
     e(  5 -  5) =     -9.14403  eV     1   --> A'             
     e(  6 -  6) =     -3.97431  eV     1   --> A'             
     e(  7 -  7) =      1.34779  eV     1   --> A'             
     e(  8 -  8) =      2.10938  eV     1   --> A'             
     e(  9 -  9) =      2.27888  eV     1   --> A''            
     e( 10 - 10) =      3.31578  eV     1   --> A''            
     e( 11 - 11) =      4.53641  eV     1   --> A'             
     e( 12 - 12) =      4.56990  eV     1   --> A'             
     e( 13 - 13) =      5.85906  eV     1   --> A'             
     e( 14 - 14) =      6.87261  eV     1   --> A'             
     e( 15 - 15) =      9.27794  eV     1   --> A'             
     e( 16 - 16) =     10.84948  eV     1   --> A'             

 **************************************************************************

 **************************************************************************

                    xk=(   0.11667,   0.06736,   0.00000  )

     Band symmetry, C_s (m)     point group:

     e(  1 -  1) =    -28.03582  eV     1   --> A'             
     e(  2 -  2) =    -13.87445  eV     1   --> A'             
     e(  3 -  3) =    -12.06041  eV     1   --> A'             
     e(  4 -  4) =    -10.81000  eV     1   --> A''            
     e(  5 -  5) =     -9.23134  eV     1   --> A'             
     e(  6 -  6) =     -4.11511  eV     1   --> A'             
     e(  7 -  7) =      1.70564  eV     1   --> A'             
     e(  8 -  8) =      1.98019  eV     1   --> A'             
     e(  9 -  9) =      2.43695  eV     1   --> A''            
     e( 10 - 10) =      2.94698  eV     1   --> A''            
     e( 11 - 11) =      4.40339  eV     1   --> A'             
     e( 12 - 12) =      4.42958  eV     1   --> A'             
     e( 13 - 13) =      5.71730  eV     1   --> A'             
     e( 14 - 14) =      6.74040  eV     1   --> A'             
     e( 15 - 15) =      9.13793  eV     1   --> A'             
     e( 16 - 16) =     10.72965  eV     1   --> A'             

 **************************************************************************

 **************************************************************************

                    xk=(   0.10000,   0.05774,   0.00000  )

     Band symmetry, C_s (m)     point group:

     e(  1 -  1) =    -28.11842  eV     1   --> A'             
     e(  2 -  2) =    -13.96248  eV     1   --> A'             
     e(  3 -  3) =    -11.64528  eV     1   --> A'             
     e(  4 -  4) =    -10.66531  eV     1   --> A''            
     e(  5 -  5) =     -9.30747  eV     1   --> A'             
     e(  6 -  6) =     -4.27680  eV     1   --> A'             
     e(  7 -  7) =      1.87591  eV     1   --> A'             
     e(  8 -  8) =      2.03295  eV     1   --> A'             
     e(  9 -  9) =      2.58343  eV     1   --> A''            
     e( 10 - 10) =      2.61714  eV     1   --> A''            
     e( 11 - 11) =      4.28807  eV     1   --> A'             
     e( 12 - 12) =      4.30753  eV     1   --> A'             
     e( 13 - 13) =      5.59357  eV     1   --> A'             
     e( 14 - 14) =      6.62580  eV     1   --> A'             
     e( 15 - 15) =      9.01538  eV     1   --> A'             
     e( 16 - 16) =     10.62496  eV     1   --> A'             

 **************************************************************************

 **************************************************************************

                    xk=(   0.08333,   0.04811,   0.00000  )

     Band symmetry, C_s (m)     point group:

     e(  1 -  1) =    -28.18840  eV     1   --> A'             
     e(  2 -  2) =    -14.03705  eV     1   --> A'             
     e(  3 -  3) =    -11.26058  eV     1   --> A'             
     e(  4 -  4) =    -10.53546  eV     1   --> A''            
     e(  5 -  5) =     -9.37216  eV     1   --> A'             
     e(  6 -  6) =     -4.45122  eV     1   --> A'             
     e(  7 -  7) =      1.79508  eV     1   --> A'             
     e(  8 -  8) =      2.32414  eV     1   --> A'             
     e(  9 -  9) =      2.32993  eV     1   --> A''            
     e( 10 - 10) =      2.71506  eV     1   --> A''            
     e( 11 - 11) =      4.19045  eV     1   --> A'             
     e( 12 - 12) =      4.20388  eV     1   --> A'             
     e( 13 - 13) =      5.48816  eV     1   --> A'             
     e( 14 - 14) =      6.52882  eV     1   --> A'             
     e( 15 - 15) =      8.91071  eV     1   --> A'             
     e( 16 - 16) =     10.53595  eV     1   --> A'             

 **************************************************************************

 **************************************************************************

                    xk=(   0.06667,   0.03849,   0.00000  )

     Band symmetry, C_s (m)     point group:

     e(  1 -  1) =    -28.24570  eV     1   --> A'             
     e(  2 -  2) =    -14.09813  eV     1   --> A'             
     e(  3 -  3) =    -10.91635  eV     1   --> A'             
     e(  4 -  4) =    -10.42363  eV     1   --> A''            
     e(  5 -  5) =     -9.42514  eV     1   --> A'             
     e(  6 -  6) =     -4.62710  eV     1   --> A'             
     e(  7 -  7) =      1.73516  eV     1   --> A'             
     e(  8 -  8) =      2.08889  eV     1   --> A''            
     e(  9 -  9) =      2.57338  eV     1   --> A'             
     e( 10 - 10) =      2.82854  eV     1   --> A''            
     e( 11 - 11) =      4.11057  eV     1   --> A'             
     e( 12 - 12) =      4.11876  eV     1   --> A'             
     e( 13 - 13) =      5.40136  eV     1   --> A'             
     e( 14 - 14) =      6.44949  eV     1   --> A'             
     e( 15 - 15) =      8.82434  eV     1   --> A'             
     e( 16 - 16) =     10.46295  eV     1   --> A'             

 **************************************************************************

 **************************************************************************

                    xk=(   0.05000,   0.02887,   0.00000  )

     Band symmetry, C_s (m)     point group:

     e(  1 -  1) =    -28.29030  eV     1   --> A'             
     e(  2 -  2) =    -14.14566  eV     1   --> A'             
     e(  3 -  3) =    -10.62509  eV     1   --> A'             
     e(  4 -  4) =    -10.33285  eV     1   --> A''            
     e(  5 -  5) =     -9.46620  eV     1   --> A'             
     e(  6 -  6) =     -4.79027  eV     1   --> A'             
     e(  7 -  7) =      1.69306  eV     1   --> A'             
     e(  8 -  8) =      1.89740  eV     1   --> A''            
     e(  9 -  9) =      2.77485  eV     1   --> A'             
     e( 10 - 10) =      2.92075  eV     1   --> A''            
     e( 11 - 11) =      4.04841  eV     1   --> A'             
     e( 12 - 12) =      4.05236  eV     1   --> A'             
     e( 13 - 13) =      5.33345  eV     1   --> A'             
     e( 14 - 14) =      6.38779  eV     1   --> A'             
     e( 15 - 15) =      8.75667  eV     1   --> A'             
     e( 16 - 16) =     10.40613  eV     1   --> A'             

 **************************************************************************

 **************************************************************************

                    xk=(   0.03333,   0.01925,   0.00000  )

     Band symmetry, C_s (m)     point group:

     e(  1 -  1) =    -28.32217  eV     1   --> A'             
     e(  2 -  2) =    -14.17963  eV     1   --> A'             
     e(  3 -  3) =    -10.40131  eV     1   --> A'             
     e(  4 -  4) =    -10.26587  eV     1   --> A''            
     e(  5 -  5) =     -9.49522  eV     1   --> A'             
     e(  6 -  6) =     -4.92448  eV     1   --> A'             
     e(  7 -  7) =      1.66566  eV     1   --> A'             
     e(  8 -  8) =      1.75824  eV     1   --> A''            
     e(  9 -  9) =      2.92322  eV     1   --> A'             
     e( 10 - 10) =      2.98887  eV     1   --> A''            
     e( 11 - 11) =      4.00375  eV     1   --> A'             
     e( 12 - 12) =      4.00505  eV     1   --> A'             
     e( 13 - 13) =      5.28471  eV     1   --> A'             
     e( 14 - 14) =      6.34374  eV     1   --> A'             
     e( 15 - 15) =      8.70804  eV     1   --> A'             
     e( 16 - 16) =     10.36554  eV     1   --> A'             

 **************************************************************************

 **************************************************************************

                    xk=(   0.01667,   0.00962,   0.00000  )

     Band symmetry, C_s (m)     point group:

     e(  1 -  1) =    -28.34130  eV     1   --> A'             
     e(  2 -  2) =    -14.20001  eV     1   --> A'             
     e(  3 -  3) =    -10.25953  eV     1   --> A'             
     e(  4 -  4) =    -10.22478  eV     1   --> A''            
     e(  5 -  5) =     -9.51231  eV     1   --> A'             
     e(  6 -  6) =     -5.01349  eV     1   --> A'             
     e(  7 -  7) =      1.65039  eV     1   --> A'             
     e(  8 -  8) =      1.67378  eV     1   --> A''            
     e(  9 -  9) =      3.01416  eV     1   --> A'             
     e( 10 - 10) =      3.03068  eV     1   --> A''            
     e( 11 - 11) =      3.97583  eV     1   --> A'             
     e( 12 - 12) =      3.97773  eV     1   --> A'             
     e( 13 - 13) =      5.25537  eV     1   --> A'             
     e( 14 - 14) =      6.31731  eV     1   --> A'             
     e( 15 - 15) =      8.67874  eV     1   --> A'             
     e( 16 - 16) =     10.34120  eV     1   --> A'             

 **************************************************************************

 **************************************************************************

                    xk=(   0.00000,   0.00000,   0.00000  )

     point group C_6v (6mm) 
     there are  6 classes
     the character table:

       E     2C6   2C3   C2    3s_v  3s_d 
A_1    1.00  1.00  1.00  1.00  1.00  1.00
A_2    1.00  1.00  1.00  1.00 -1.00 -1.00
B_1    1.00 -1.00  1.00 -1.00  1.00 -1.00
B_2    1.00 -1.00  1.00 -1.00 -1.00  1.00
E_1    2.00  1.00 -1.00 -2.00  0.00  0.00
E_2    2.00 -1.00 -1.00  2.00  0.00  0.00

     the symmetry operations in each class and the name of the first element:

     E        1
                                                                 
     2C6      3    4
                                                                 
     2C3      5    6
                                                                 
     C2       2
                                                                 
     3s_v     8   12   11
                                                                 
     3s_d     7    9   10
                                                                 

     Band symmetry, C_6v (6mm)  point group:

     e(  1 -  1) =    -28.34767  eV     1   --> A_1            
     e(  2 -  2) =    -14.20680  eV     1   --> A_1            
     e(  3 -  4) =    -10.21093  eV     2   --> E_2            
     e(  5 -  5) =     -9.51791  eV     1   --> A_1            
     e(  6 -  6) =     -5.04469  eV     1   --> B_1            
     e(  7 -  8) =      1.64545  eV     2   --> E_1            
     e(  9 - 10) =      3.04477  eV     2   --> E_2            
     e( 11 - 11) =      3.96634  eV     1   --> A_1            
     e( 12 - 12) =      3.96880  eV     1   --> A_1            
     e( 13 - 13) =      5.24557  eV     1   --> A_1            
     e( 14 - 14) =      6.30851  eV     1   --> A_1            
     e( 15 - 15) =      8.66895  eV     1   --> A_1            
     e( 16 - 16) =     10.33309  eV     1   --> A_1            

 **************************************************************************

     BANDS        :      5.27s CPU      5.59s WALL


   This run was terminated on:  11:58:43  23Mar2025            

=------------------------------------------------------------------------------=
   JOB DONE.
=------------------------------------------------------------------------------=
Note: The following floating-point exceptions are signalling: IEEE_DENORMAL
Note: The following floating-point exceptions are signalling: IEEE_DENORMAL
Note: The following floating-point exceptions are signalling: IEEE_DENORMAL
Note: The following floating-point exceptions are signalling: IEEE_DENORMAL
Note: The following floating-point exceptions are signalling: IEEE_DENORMAL
Note: The following floating-point exceptions are signalling: IEEE_DENORMAL
