
     Program PWSCF v.7.4.1 starts on 23Mar2025 at 11:57:28 

     This program is part of the open-source Quantum ESPRESSO suite
     for quantum simulation of materials; please cite
         "P. Giannozzi et al., J. Phys.:Condens. Matter 21 395502 (2009);
         "P. Giannozzi et al., J. Phys.:Condens. Matter 29 465901 (2017);
         "P. Giannozzi et al., J. Chem. Phys. 152 154105 (2020);
          URL http://www.quantum-espresso.org", 
     in publications or presentations arising from this work. More details at
     http://www.quantum-espresso.org/quote

     Parallel version (MPI), running on     7 processors

     MPI processes distributed on     1 nodes
     11482 MiB available memory on the printing compute node when the environment starts

     Waiting for input...
     Reading input from standard input

     Current dimensions of program PWSCF are:
     Max number of different atomic species (ntypx) = 10
     Max number of k-points (npk) =  40000
     Max angular momentum in pseudopotentials (lmaxx) =  4

     Atomic positions and unit cell read from directory:
     ../../../../tmp/gr-aa-2L.save/
     Atomic positions from file used, from input discarded


     R & G space division:  proc/nbgrp/npool/nimage =       7
     Subspace diagonalization in iterative solution of the eigenvalue problem:
     a serial algorithm will be used


     Parallelization info
     --------------------
     sticks:   dense  smooth     PW     G-vecs:    dense   smooth      PW
     Min          62      51     15                 6632     4783     815
     Max          63      52     16                 6655     4800     838
     Sum         439     361    109                46531    33523    5791

     Using Slab Decomposition



     bravais-lattice index     =            4
     lattice parameter (alat)  =       4.6561  a.u.
     unit-cell volume          =     532.1899 (a.u.)^3
     number of atoms/cell      =            4
     number of atomic types    =            1
     number of electrons       =        16.00
     number of Kohn-Sham states=           16
     kinetic-energy cutoff     =      60.0000  Ry
     charge density cutoff     =     300.0000  Ry
     Exchange-correlation= PBE
                           (   1   4   3   4   0   0   0)

     celldm(1)=   4.656107  celldm(2)=   0.000000  celldm(3)=   6.087896
     celldm(4)=   0.000000  celldm(5)=   0.000000  celldm(6)=   0.000000

     crystal axes: (cart. coord. in units of alat)
               a(1) = (   1.000000   0.000000   0.000000 )  
               a(2) = (  -0.500000   0.866025   0.000000 )  
               a(3) = (   0.000000   0.000000   6.087896 )  

     reciprocal axes: (cart. coord. in units 2 pi/alat)
               b(1) = (  1.000000  0.577350 -0.000000 )  
               b(2) = (  0.000000  1.154701  0.000000 )  
               b(3) = (  0.000000 -0.000000  0.164260 )  


     PseudoPot. # 1 for C  read from file:
     ../../../../pseudo/C.pbe-n-rrkjus_psl.0.1.UPF
     MD5 check sum: 96a6a315177d77e6c95bf6fd3870f9e3
     Pseudo is Ultrasoft + core correction, Zval =  4.0
     Generated using &quot;atomic&quot; code by A. Dal Corso  v.6.3MaX
     Using radial grid of 1073 points,  4 beta functions with: 
                l(1) =   0
                l(2) =   0
                l(3) =   1
                l(4) =   1
     Q(r) pseudized with 0 coefficients 


     atomic species   valence    mass     pseudopotential
     C                 4.00    12.01070     C ( 1.00)

     12 Sym. Ops. (no inversion) found



   Cartesian axes

     site n.     atom                  positions (alat units)
         1        C      tau(   1) = (   0.0000000   0.5773503   2.9365620  )
         2        C      tau(   2) = (   0.5000000   0.2886751   2.9365620  )
         3        C      tau(   3) = (   0.0000000   0.5773503   3.3542635  )
         4        C      tau(   4) = (   0.5000000   0.2886751   3.3542635  )

     number of k points=    91  Marzari-Vanderbilt smearing, width (Ry)=  0.0200
                       cart. coord. in units 2pi/alat
        k(    1) = (   0.0000000   0.0000000   0.0000000), wk =   0.0219780
        k(    2) = (   0.0166667   0.0000000   0.0000000), wk =   0.0219780
        k(    3) = (   0.0333333   0.0000000   0.0000000), wk =   0.0219780
        k(    4) = (   0.0500000   0.0000000   0.0000000), wk =   0.0219780
        k(    5) = (   0.0666667   0.0000000   0.0000000), wk =   0.0219780
        k(    6) = (   0.0833333   0.0000000   0.0000000), wk =   0.0219780
        k(    7) = (   0.1000000   0.0000000   0.0000000), wk =   0.0219780
        k(    8) = (   0.1166667   0.0000000   0.0000000), wk =   0.0219780
        k(    9) = (   0.1333333   0.0000000   0.0000000), wk =   0.0219780
        k(   10) = (   0.1500000   0.0000000   0.0000000), wk =   0.0219780
        k(   11) = (   0.1666667   0.0000000   0.0000000), wk =   0.0219780
        k(   12) = (   0.1833333   0.0000000   0.0000000), wk =   0.0219780
        k(   13) = (   0.2000000   0.0000000   0.0000000), wk =   0.0219780
        k(   14) = (   0.2166667   0.0000000   0.0000000), wk =   0.0219780
        k(   15) = (   0.2333333   0.0000000   0.0000000), wk =   0.0219780
        k(   16) = (   0.2500000   0.0000000   0.0000000), wk =   0.0219780
        k(   17) = (   0.2666667   0.0000000   0.0000000), wk =   0.0219780
        k(   18) = (   0.2833333   0.0000000   0.0000000), wk =   0.0219780
        k(   19) = (   0.3000000   0.0000000   0.0000000), wk =   0.0219780
        k(   20) = (   0.3166667   0.0000000   0.0000000), wk =   0.0219780
        k(   21) = (   0.3333333   0.0000000   0.0000000), wk =   0.0219780
        k(   22) = (   0.3500000   0.0000000   0.0000000), wk =   0.0219780
        k(   23) = (   0.3666667   0.0000000   0.0000000), wk =   0.0219780
        k(   24) = (   0.3833333   0.0000000   0.0000000), wk =   0.0219780
        k(   25) = (   0.4000000   0.0000000   0.0000000), wk =   0.0219780
        k(   26) = (   0.4166667   0.0000000   0.0000000), wk =   0.0219780
        k(   27) = (   0.4333333   0.0000000   0.0000000), wk =   0.0219780
        k(   28) = (   0.4500000   0.0000000   0.0000000), wk =   0.0219780
        k(   29) = (   0.4666667   0.0000000   0.0000000), wk =   0.0219780
        k(   30) = (   0.4833333   0.0000000   0.0000000), wk =   0.0219780
        k(   31) = (   0.5000000   0.0000000   0.0000000), wk =   0.0219780
        k(   32) = (   0.5166667   0.0000000   0.0000000), wk =   0.0219780
        k(   33) = (   0.5333333   0.0000000   0.0000000), wk =   0.0219780
        k(   34) = (   0.5500000   0.0000000   0.0000000), wk =   0.0219780
        k(   35) = (   0.5666667   0.0000000   0.0000000), wk =   0.0219780
        k(   36) = (   0.5833333   0.0000000   0.0000000), wk =   0.0219780
        k(   37) = (   0.6000000   0.0000000   0.0000000), wk =   0.0219780
        k(   38) = (   0.6166667   0.0000000   0.0000000), wk =   0.0219780
        k(   39) = (   0.6333333   0.0000000   0.0000000), wk =   0.0219780
        k(   40) = (   0.6500000   0.0000000   0.0000000), wk =   0.0219780
        k(   41) = (   0.6666667   0.0000000   0.0000000), wk =   0.0219780
        k(   42) = (   0.6583333   0.0144338   0.0000000), wk =   0.0219780
        k(   43) = (   0.6500000   0.0288675   0.0000000), wk =   0.0219780
        k(   44) = (   0.6416667   0.0433013   0.0000000), wk =   0.0219780
        k(   45) = (   0.6333333   0.0577350   0.0000000), wk =   0.0219780
        k(   46) = (   0.6250000   0.0721688   0.0000000), wk =   0.0219780
        k(   47) = (   0.6166667   0.0866025   0.0000000), wk =   0.0219780
        k(   48) = (   0.6083333   0.1010363   0.0000000), wk =   0.0219780
        k(   49) = (   0.6000000   0.1154701   0.0000000), wk =   0.0219780
        k(   50) = (   0.5916667   0.1299038   0.0000000), wk =   0.0219780
        k(   51) = (   0.5833333   0.1443376   0.0000000), wk =   0.0219780
        k(   52) = (   0.5750000   0.1587713   0.0000000), wk =   0.0219780
        k(   53) = (   0.5666667   0.1732051   0.0000000), wk =   0.0219780
        k(   54) = (   0.5583333   0.1876388   0.0000000), wk =   0.0219780
        k(   55) = (   0.5500000   0.2020726   0.0000000), wk =   0.0219780
        k(   56) = (   0.5416667   0.2165064   0.0000000), wk =   0.0219780
        k(   57) = (   0.5333333   0.2309401   0.0000000), wk =   0.0219780
        k(   58) = (   0.5250000   0.2453739   0.0000000), wk =   0.0219780
        k(   59) = (   0.5166667   0.2598076   0.0000000), wk =   0.0219780
        k(   60) = (   0.5083333   0.2742414   0.0000000), wk =   0.0219780
        k(   61) = (   0.5000000   0.2886751   0.0000000), wk =   0.0219780
        k(   62) = (   0.4833333   0.2790526   0.0000000), wk =   0.0219780
        k(   63) = (   0.4666667   0.2694301   0.0000000), wk =   0.0219780
        k(   64) = (   0.4500000   0.2598076   0.0000000), wk =   0.0219780
        k(   65) = (   0.4333333   0.2501851   0.0000000), wk =   0.0219780
        k(   66) = (   0.4166667   0.2405626   0.0000000), wk =   0.0219780
        k(   67) = (   0.4000000   0.2309401   0.0000000), wk =   0.0219780
        k(   68) = (   0.3833333   0.2213176   0.0000000), wk =   0.0219780
        k(   69) = (   0.3666667   0.2116951   0.0000000), wk =   0.0219780
        k(   70) = (   0.3500000   0.2020726   0.0000000), wk =   0.0219780
        k(   71) = (   0.3333333   0.1924501   0.0000000), wk =   0.0219780
        k(   72) = (   0.3166667   0.1828276   0.0000000), wk =   0.0219780
        k(   73) = (   0.3000000   0.1732051   0.0000000), wk =   0.0219780
        k(   74) = (   0.2833333   0.1635826   0.0000000), wk =   0.0219780
        k(   75) = (   0.2666667   0.1539601   0.0000000), wk =   0.0219780
        k(   76) = (   0.2500000   0.1443376   0.0000000), wk =   0.0219780
        k(   77) = (   0.2333333   0.1347151   0.0000000), wk =   0.0219780
        k(   78) = (   0.2166667   0.1250926   0.0000000), wk =   0.0219780
        k(   79) = (   0.2000000   0.1154701   0.0000000), wk =   0.0219780
        k(   80) = (   0.1833333   0.1058475   0.0000000), wk =   0.0219780
        k(   81) = (   0.1666667   0.0962250   0.0000000), wk =   0.0219780
        k(   82) = (   0.1500000   0.0866025   0.0000000), wk =   0.0219780
        k(   83) = (   0.1333333   0.0769800   0.0000000), wk =   0.0219780
        k(   84) = (   0.1166667   0.0673575   0.0000000), wk =   0.0219780
        k(   85) = (   0.1000000   0.0577350   0.0000000), wk =   0.0219780
        k(   86) = (   0.0833333   0.0481125   0.0000000), wk =   0.0219780
        k(   87) = (   0.0666667   0.0384900   0.0000000), wk =   0.0219780
        k(   88) = (   0.0500000   0.0288675   0.0000000), wk =   0.0219780
        k(   89) = (   0.0333333   0.0192450   0.0000000), wk =   0.0219780
        k(   90) = (   0.0166667   0.0096225   0.0000000), wk =   0.0219780
        k(   91) = (   0.0000000   0.0000000   0.0000000), wk =   0.0219780

     Dense  grid:    46531 G-vectors     FFT dimensions: (  25,  25, 160)

     Smooth grid:    33523 G-vectors     FFT dimensions: (  24,  24, 144)

     Estimated max dynamical RAM per process >       7.51 MB

     Estimated total dynamical RAM >      52.57 MB

     Check: negative core charge=   -0.000003

     The potential is recalculated from file :
     ../../../../tmp/gr-aa-2L.save/charge-density


     negative rho (up, down):  3.931E-04 0.000E+00
     Starting wfcs are   16 randomized atomic wfcs

     Band Structure Calculation
     Davidson diagonalization with overlap
     c_bands:  1 eigenvalues not converged
     c_bands:  1 eigenvalues not converged
     c_bands:  1 eigenvalues not converged
     c_bands:  1 eigenvalues not converged
     c_bands:  1 eigenvalues not converged
     c_bands:  1 eigenvalues not converged
     c_bands:  1 eigenvalues not converged
     c_bands:  2 eigenvalues not converged
     c_bands:  2 eigenvalues not converged
     c_bands:  2 eigenvalues not converged
     c_bands:  2 eigenvalues not converged
     c_bands:  2 eigenvalues not converged
     c_bands:  2 eigenvalues not converged
     c_bands:  2 eigenvalues not converged
     c_bands:  2 eigenvalues not converged
     c_bands:  2 eigenvalues not converged
     c_bands:  2 eigenvalues not converged
     c_bands:  1 eigenvalues not converged
     c_bands:  3 eigenvalues not converged
     c_bands:  2 eigenvalues not converged
     c_bands:  3 eigenvalues not converged
     c_bands:  3 eigenvalues not converged
     c_bands:  3 eigenvalues not converged
     c_bands:  1 eigenvalues not converged
     c_bands:  2 eigenvalues not converged
     c_bands:  1 eigenvalues not converged
     c_bands:  3 eigenvalues not converged
     c_bands:  3 eigenvalues not converged
     c_bands:  3 eigenvalues not converged
     c_bands:  3 eigenvalues not converged
     c_bands:  1 eigenvalues not converged
     c_bands:  3 eigenvalues not converged
     c_bands:  2 eigenvalues not converged
     c_bands:  2 eigenvalues not converged
     c_bands:  3 eigenvalues not converged
     c_bands:  3 eigenvalues not converged
     c_bands:  4 eigenvalues not converged
     c_bands:  2 eigenvalues not converged
     c_bands:  2 eigenvalues not converged
     c_bands:  2 eigenvalues not converged
     c_bands:  1 eigenvalues not converged
     c_bands:  1 eigenvalues not converged
     c_bands:  1 eigenvalues not converged
     c_bands:  2 eigenvalues not converged
     c_bands:  2 eigenvalues not converged
     c_bands:  1 eigenvalues not converged
     c_bands:  1 eigenvalues not converged
     c_bands:  1 eigenvalues not converged
     c_bands:  1 eigenvalues not converged

     ethr =  6.25E-11,  avg # of iterations =112.3

     total cpu time spent up to now is       67.3 secs

     End of band structure calculation

          k = 0.0000 0.0000 0.0000 (  4149 PWs)   bands (ev):

   -28.3477 -14.2068 -10.2109 -10.2109  -9.5179  -5.0447   1.6454   1.6454
     3.0448   3.0448   3.9663   3.9688   5.2456   6.3085   8.6690  10.3331

          k = 0.0167 0.0000 0.0000 (  4143 PWs)   bands (ev):

   -28.3429 -14.2017 -10.2474 -10.2214  -9.5137  -5.0212   1.6491   1.6667
     3.0218   3.0342   3.9735   3.9755   5.2529   6.3151   8.6763  10.3392

          k = 0.0333 0.0000 0.0000 (  4147 PWs)   bands (ev):

   -28.3285 -14.1864 -10.3542 -10.2528  -9.5009  -4.9533   1.6602   1.7305
     2.9537   3.0024   3.9946   3.9958   5.2749   6.3349   8.6983  10.3574

          k = 0.0500 0.0000 0.0000 (  4165 PWs)   bands (ev):

   -28.3046 -14.1609 -10.5242 -10.3054  -9.4789  -4.8485   1.6787   1.8366
     2.8425   2.9497   4.0284   4.0310   5.3115   6.3680   8.7348  10.3879

          k = 0.0667 0.0000 0.0000 (  4169 PWs)   bands (ev):

   -28.2712 -14.1253 -10.7473 -10.3794  -9.4472  -4.7164   1.7055   1.9846
     2.6918   2.8764   4.0751   4.0808   5.3626   6.4142   8.7857  10.4305

          k = 0.0833 0.0000 0.0000 (  4169 PWs)   bands (ev):

   -28.2282 -14.0795 -11.0135 -10.4744  -9.4053  -4.5671   1.7407   2.1739
     2.5056   2.7829   4.1350   4.1448   5.4279   6.4737   8.8508  10.4854

          k = 0.1000 0.0000 0.0000 (  4169 PWs)   bands (ev):

   -28.1757 -14.0235 -11.3132 -10.5898  -9.3530  -4.4097   1.7851   2.2886
     2.4030   2.6700   4.2083   4.2227   5.5073   6.5465   8.9298  10.5526

          k = 0.1167 0.0000 0.0000 (  4175 PWs)   bands (ev):

   -28.1137 -13.9574 -11.6385 -10.7247  -9.2902  -4.2513   1.8392   2.0452
     2.5383   2.6702   4.2949   4.3144   5.6006   6.6325   9.0224  10.6321

          k = 0.1333 0.0000 0.0000 (  4171 PWs)   bands (ev):

   -28.0422 -13.8812 -11.9826 -10.8777  -9.2171  -4.0970   1.7798   1.9035
     2.3888   2.9726   4.3948   4.4199   5.7075   6.7318   9.1284  10.7239

          k = 0.1500 0.0000 0.0000 (  4179 PWs)   bands (ev):

   -27.9612 -13.7950 -12.3403 -11.0475  -9.1338  -3.9504   1.4966   1.9787
     2.2225   3.3069   4.5079   4.5390   5.8278   6.8443   9.2474  10.8281

          k = 0.1667 0.0000 0.0000 (  4169 PWs)   bands (ev):

   -27.8709 -13.6987 -12.7075 -11.2327  -9.0406  -3.8135   1.1991   2.0407
     2.0652   3.6689   4.6344   4.6717   5.9614   6.9702   9.3792  10.9446

          k = 0.1833 0.0000 0.0000 (  4167 PWs)   bands (ev):

   -27.7711 -13.5924 -13.0808 -11.4317  -8.9376  -3.6874   0.8904   1.8446
     2.1634   4.0537   4.7742   4.8177   6.1080   7.1092   9.5234  11.0735

          k = 0.2000 0.0000 0.0000 (  4179 PWs)   bands (ev):

   -27.6621 -13.4763 -13.4576 -11.6431  -8.8251  -3.5724   0.5734   1.6354
     2.2737   4.4555   4.9271   4.9772   6.2676   7.2615   9.6799  11.2147

          k = 0.2167 0.0000 0.0000 (  4175 PWs)   bands (ev):

   -27.5438 -13.8358 -13.3502 -11.8653  -8.7033  -3.4685   0.2503   1.4147
     2.3962   4.8677   5.0934   5.1501   6.4398   7.4270   9.8483  11.3681

          k = 0.2333 0.0000 0.0000 (  4163 PWs)   bands (ev):

   -27.4163 -14.2135 -13.2143 -12.0968  -8.5724  -3.3751  -0.0766   1.1838
     2.5313   5.2728   5.2826   5.3362   6.6247   7.6057  10.0282  11.5362

          k = 0.2500 0.0000 0.0000 (  4163 PWs)   bands (ev):

   -27.2797 -14.5896 -13.0687 -12.3362  -8.4329  -3.2920  -0.4059   0.9440
     2.6788   5.4653   5.5356   5.6911   6.8219   7.7976  10.2194  11.6235

          k = 0.2667 0.0000 0.0000 (  4174 PWs)   bands (ev):

   -27.1340 -14.9627 -12.9135 -12.5820  -8.2849  -3.2185  -0.7359   0.6967
     2.8389   5.6710   5.7482   6.0824   7.0315   8.0025  10.4215  11.5493

          k = 0.2833 0.0000 0.0000 (  4170 PWs)   bands (ev):

   -26.9794 -15.3320 -12.8329 -12.7486  -8.1288  -3.1544  -1.0655   0.4434
     3.0115   5.8898   5.9740   6.4441   7.2532   8.2206  10.6341  11.5208

          k = 0.3000 0.0000 0.0000 (  4172 PWs)   bands (ev):

   -26.8159 -15.6967 -13.0877 -12.5743  -7.9650  -3.0992  -1.3934   0.1852
     3.1966   6.1216   6.2128   6.7633   7.4868   8.4518  10.8565  11.5503

          k = 0.3167 0.0000 0.0000 (  4170 PWs)   bands (ev):

   -26.6438 -16.0560 -13.3450 -12.3907  -7.7938  -3.0527  -1.7189  -0.0765
     3.3939   6.3663   6.4647   7.0282   7.7321   8.6959  11.0881  11.6487

          k = 0.3333 0.0000 0.0000 (  4170 PWs)   bands (ev):

   -26.4630 -16.4095 -13.6037 -12.1978  -7.6157  -3.0148  -2.0412  -0.3406
     3.6032   6.6240   6.7294   7.2314   7.9889   8.9530  11.3280  11.8222

          k = 0.3500 0.0000 0.0000 (  4176 PWs)   bands (ev):

   -26.2739 -16.7566 -13.8627 -11.9959  -7.4313  -2.9855  -2.3595  -0.6061
     3.8243   6.8945   7.0070   7.3726   8.2568   9.2229  11.5749  12.0703

          k = 0.3667 0.0000 0.0000 (  4166 PWs)   bands (ev):

   -26.0766 -17.0970 -14.1209 -11.7850  -7.2409  -2.9648  -2.6732  -0.8717
     4.0569   7.1778   7.2971   7.4584   8.5355   9.5055  11.8272  12.3851

          k = 0.3833 0.0000 0.0000 (  4182 PWs)   bands (ev):

   -25.8714 -17.4303 -14.3773 -11.5655  -7.0453  -2.9819  -2.9527  -1.1366
     4.3004   7.4736   7.5001   7.5996   8.8242   9.8009  12.0826  12.7537

          k = 0.4000 0.0000 0.0000 (  4174 PWs)   bands (ev):

   -25.6584 -17.7562 -14.6308 -11.3375  -6.8450  -3.2851  -2.9491  -1.3996
     4.5546   7.5101   7.7820   7.9141   9.1224  10.1087  12.3379  13.1620

          k = 0.4167 0.0000 0.0000 (  4180 PWs)   bands (ev):

   -25.4381 -18.0745 -14.8805 -11.1012  -6.6409  -3.5824  -2.9544  -1.6601
     4.8187   7.5000   8.1027   8.2400   9.4290  10.4289  12.5887  13.5965

          k = 0.4333 0.0000 0.0000 (  4168 PWs)   bands (ev):

   -25.2108 -18.3849 -15.1254 -10.8570  -6.4336  -3.8734  -2.9684  -1.9169
     5.0921   7.4792   8.4355   8.5767   9.7427  10.7612  12.8288  14.0478

          k = 0.4500 0.0000 0.0000 (  4172 PWs)   bands (ev):

   -24.9769 -18.6873 -15.3646 -10.6053  -6.2242  -4.1580  -2.9911  -2.1694
     5.3739   7.4552   8.7802   8.9229  10.0617  11.1054  13.0506  14.2633

          k = 0.4667 0.0000 0.0000 (  4164 PWs)   bands (ev):

   -24.7370 -18.9814 -15.5970 -10.3465  -6.0135  -4.4357  -3.0223  -2.4164
     5.6629   7.4335   9.1364   9.2768  10.3836  11.4611  13.2456  14.2736

          k = 0.4833 0.0000 0.0000 (  4150 PWs)   bands (ev):

   -24.4917 -19.2672 -15.8215 -10.0811  -5.8027  -4.7064  -3.0620  -2.6573
     5.9579   7.4183   9.5038   9.6351  10.7053  11.8278  13.4079  14.2787

          k = 0.5000 0.0000 0.0000 (  4156 PWs)   bands (ev):

   -24.2418 -19.5445 -16.0372  -9.8097  -5.5930  -4.9699  -3.1098  -2.8909
     6.2569   7.4128   9.8817   9.9922  11.0235  12.2048  13.5389  14.2769

          k = 0.5167 0.0000 0.0000 (  4156 PWs)   bands (ev):

   -23.9882 -19.8132 -16.2427  -9.5333  -5.3856  -5.2259  -3.1653  -3.1163
     6.5577   7.4190  10.2696  10.3378  11.3357  12.5912  13.6521  14.2668

          k = 0.5333 0.0000 0.0000 (  4156 PWs)   bands (ev):

   -23.7320 -20.0732 -16.4366  -9.2527  -5.4743  -5.1820  -3.3321  -3.2280
     6.8570   7.4386  10.6537  10.6664  11.6448  12.9855  13.7709  14.2469

          k = 0.5500 0.0000 0.0000 (  4156 PWs)   bands (ev):

   -23.4746 -20.3245 -16.6175  -8.9695  -5.7149  -4.9838  -3.5369  -3.2974
     7.1506   7.4725  10.9120  11.0707  11.9628  13.3850  13.9205  14.2159

          k = 0.5667 0.0000 0.0000 (  4142 PWs)   bands (ev):

   -23.2177 -20.5669 -16.7835  -8.6853  -5.9477  -4.7927  -3.7289  -3.3727
     7.4322   7.5214  11.0850  11.4807  12.3083  13.7846  14.1170  14.1723

          k = 0.5833 0.0000 0.0000 (  4144 PWs)   bands (ev):

   -22.9633 -20.8005 -16.9324  -8.4025  -6.1724  -4.6105  -3.9057  -3.4533
     7.5855   7.6934  11.1640  11.8934  12.6912  14.1149  14.1709  14.3553

          k = 0.6000 0.0000 0.0000 (  4140 PWs)   bands (ev):

   -22.7139 -21.0251 -17.0617  -8.1243  -6.3890  -4.4392  -4.0640  -3.5384
     7.6649   7.9217  11.1643  12.3042  13.1070  14.0433  14.4947  14.5597

          k = 0.6167 0.0000 0.0000 (  4154 PWs)   bands (ev):

   -22.4726 -21.2407 -17.1686  -7.8553  -6.5974  -4.2810  -4.1996  -3.6271
     7.7593   8.1002  11.1134  12.7055  13.5404  13.9572  14.4694  14.6141

          k = 0.6333 0.0000 0.0000 (  4166 PWs)   bands (ev):

   -22.2428 -21.4473 -17.2495  -7.6015  -6.7975  -4.3066  -4.1379  -3.7186
     7.8684   8.2072  11.0435  13.0835  13.8574  13.9313  14.3491  14.5456

          k = 0.6500 0.0000 0.0000 (  4156 PWs)   bands (ev):

   -22.0283 -21.6449 -17.3009  -7.3707  -6.9891  -4.3775  -4.0124  -3.8121
     7.9919   8.2208  10.9862  13.4097  13.7453  14.0245  14.4409  14.5985

          k = 0.6667 0.0000 0.0000 (  4152 PWs)   bands (ev):

   -21.8333 -21.8333 -17.3188  -7.1723  -7.1723  -4.4032  -3.9067  -3.9067
     8.1291   8.1291  10.9648  13.6226  13.6226  14.0038  14.3881  14.9861

          k = 0.6583 0.0144 0.0000 (  4152 PWs)   bands (ev):

   -22.0127 -21.6617 -17.2998  -7.3469  -7.0157  -4.3749  -4.0017  -3.8233
     7.9384   8.2794  10.9852  13.4919  13.6551  14.0323  14.4434  14.7230

          k = 0.6500 0.0289 0.0000 (  4156 PWs)   bands (ev):

   -22.1829 -21.5165 -17.2412  -7.5129  -6.9070  -4.2869  -4.0963  -3.7643
     7.6707   8.4422  11.0385  13.3556  13.5561  14.1047  14.4732  14.5386

          k = 0.6417 0.0433 0.0000 (  4148 PWs)   bands (ev):

   -22.3440 -21.3995 -17.1418  -7.6702  -6.8464  -4.1896  -4.1400  -3.7319
     7.3525   8.6168  11.1116  13.2161  13.4063  14.1610  14.2367  14.5772

          k = 0.6333 0.0577 0.0000 (  4144 PWs)   bands (ev):

   -22.4959 -21.3106 -17.0024  -7.8188  -6.8276  -4.2811  -3.9412  -3.7279
     7.0074   8.8023  11.1940  13.0760  13.2400  14.0140  14.1089  14.5318

          k = 0.6250 0.0722 0.0000 (  4160 PWs)   bands (ev):

   -22.6387 -21.2482 -16.8255  -7.9586  -6.8411  -4.3702  -3.7537  -3.7011
     6.6533   8.9979  11.2793  12.9372  13.0695  13.8051  13.9747  14.4094

          k = 0.6167 0.0866 0.0000 (  4172 PWs)   bands (ev):

   -22.7723 -21.2091 -16.6153  -8.0896  -6.8771  -4.4560  -3.8100  -3.4308
     6.3034   9.2028  11.3640  12.8016  12.8996  13.6102  13.8203  14.2287

          k = 0.6083 0.1010 0.0000 (  4180 PWs)   bands (ev):

   -22.8967 -21.1895 -16.3771  -8.2118  -6.9274  -4.5383  -3.8969  -3.1400
     5.9670   9.4160  11.4459  12.6708  12.7322  13.4293  13.6684  14.0053

          k = 0.6000 0.1155 0.0000 (  4182 PWs)   bands (ev):

   -23.0119 -21.1852 -16.1164  -8.3250  -6.9857  -4.6163  -4.0134  -2.8367
     5.6508   9.6366  11.5230  12.5460  12.5672  13.2629  13.5268  13.7533

          k = 0.5917 0.1299 0.0000 (  4180 PWs)   bands (ev):

   -23.1179 -21.1925 -15.8391  -8.4293  -7.0477  -4.6896  -4.1576  -2.5275
     5.3591   9.8633  11.5933  12.4029  12.4284  13.1111  13.3985  13.4857

          k = 0.5833 0.1443 0.0000 (  4178 PWs)   bands (ev):

   -23.2146 -21.2078 -15.5511  -8.5246  -7.1101  -4.7579  -4.3262  -2.2183
     5.0945  10.0946  11.6548  12.2360  12.3188  12.9745  13.2163  13.2853

          k = 0.5750 0.1588 0.0000 (  4186 PWs)   bands (ev):

   -23.3022 -21.2283 -15.2582  -8.6109  -7.1706  -4.8208  -4.5150  -1.9142
     4.8585  10.3287  11.7058  12.0615  12.2180  12.8536  12.9595  13.1876

          k = 0.5667 0.1732 0.0000 (  4178 PWs)   bands (ev):

   -23.3805 -21.2515 -14.9664  -8.6882  -7.2275  -4.8779  -4.7183  -1.6203
     4.6513  10.5634  11.7453  11.8744  12.1265  12.7295  12.7495  13.1055

          k = 0.5583 0.1876 0.0000 (  4186 PWs)   bands (ev):

   -23.4497 -21.2757 -14.6819  -8.7565  -7.2796  -4.9295  -4.9289  -1.3418
     4.4725  10.7953  11.6733  11.7733  12.0448  12.5363  12.6639  13.0381

          k = 0.5500 0.2021 0.0000 (  4188 PWs)   bands (ev):

   -23.5096 -21.2991 -14.4114  -8.8156  -7.3261  -5.1406  -4.9736  -1.0840
     4.3211  11.0198  11.4642  11.7908  11.9734  12.3821  12.5995  12.9843

          k = 0.5417 0.2165 0.0000 (  4184 PWs)   bands (ev):

   -23.5603 -21.3207 -14.1622  -8.8658  -7.3664  -5.3431  -5.0118  -0.8525
     4.1959  11.2298  11.2591  11.7998  11.9125  12.2628  12.5603  12.9425

          k = 0.5333 0.2309 0.0000 (  4192 PWs)   bands (ev):

   -23.6018 -21.3395 -13.9421  -8.9068  -7.3999  -5.5276  -5.0433  -0.6528
     4.0957  11.0712  11.4155  11.8028  11.8623  12.1726  12.5526  12.9110

          k = 0.5250 0.2454 0.0000 (  4198 PWs)   bands (ev):

   -23.6340 -21.3548 -13.7594  -8.9387  -7.4262  -5.6844  -5.0679  -0.4904
     4.0192  10.9126  11.5647  11.8021  11.8231  12.1066  12.5822  12.8889

          k = 0.5167 0.2598 0.0000 (  4198 PWs)   bands (ev):

   -23.6571 -21.3660 -13.6217  -8.9615  -7.4452  -5.8045  -5.0856  -0.3702
     3.9653  10.7924  11.6685  11.7950  11.7999  12.0613  12.6480  12.8727

          k = 0.5083 0.2742 0.0000 (  4194 PWs)   bands (ev):

   -23.6709 -21.3729 -13.5360  -8.9752  -7.4567  -5.8801  -5.0962  -0.2964
     3.9333  10.7176  11.7264  11.7781  11.7980  12.0348  12.7286  12.9065

          k = 0.5000 0.2887 0.0000 (  4184 PWs)   bands (ev):

   -23.6755 -21.3753 -13.5069  -8.9797  -7.4605  -5.9059  -5.0998  -0.2715
     3.9227  10.6922  11.7446  11.7725  11.7972  12.0261  12.7702  12.8602

          k = 0.4833 0.2791 0.0000 (  4194 PWs)   bands (ev):

   -23.7289 -21.3111 -13.5004  -9.0643  -7.3659  -5.9416  -5.0701  -0.2650
     3.9297  10.6674  11.3835  11.4382  12.0661  12.3983  12.4107  13.1436

          k = 0.4667 0.2694 0.0000 (  4200 PWs)   bands (ev):

   -23.8740 -21.1339 -13.4811  -9.2740  -7.1262  -6.0363  -4.9933  -0.2457
     3.9501  10.5435  10.9537  11.1105  11.9916  12.2411  12.8766  12.9981

          k = 0.4500 0.2598 0.0000 (  4194 PWs)   bands (ev):

   -24.0799 -20.8744 -13.4489  -9.5431  -6.8070  -6.1682  -4.8908  -0.2136
     3.9819  10.2390  10.5086  10.9727  11.5837  12.2618  12.7563  12.7633

          k = 0.4333 0.2502 0.0000 (  4186 PWs)   bands (ev):

   -24.3197 -20.5597 -13.4041  -9.8353  -6.4451  -6.3219  -4.7770  -0.1687
     4.0219   9.8404  10.0632  10.9422  11.1721  12.1796  12.3237  12.4492

          k = 0.4167 0.2406 0.0000 (  4172 PWs)   bands (ev):

   -24.5762 -20.2073 -13.3467 -10.1339  -6.4889  -6.0571  -4.6597  -0.1113
     4.0657   9.4243   9.6250  10.7644  10.9352  11.9173  12.0306  12.0674

          k = 0.4000 0.2309 0.0000 (  4176 PWs)   bands (ev):

   -24.8389 -19.8279 -13.2770 -10.4311  -6.6640  -5.6514  -4.5429  -0.0416
     4.1076   9.0124   9.1982  10.3642  10.9004  11.5732  11.6298  11.8468

          k = 0.3833 0.2213 0.0000 (  4186 PWs)   bands (ev):

   -25.1015 -19.4279 -13.1952 -10.7227  -6.8442  -5.2323  -4.4285   0.0402
     4.1412   8.6113   8.7849   9.9742  10.7518  11.1481  11.3720  11.6526

          k = 0.3667 0.2117 0.0000 (  4190 PWs)   bands (ev):

   -25.3602 -19.0114 -13.1016 -11.0065  -7.0270  -4.8027  -4.3179   0.1338
     4.1596   8.2239   8.3866   9.5959  10.4677  10.6324  11.3334  11.4667

          k = 0.3500 0.2021 0.0000 (  4184 PWs)   bands (ev):

   -25.6125 -18.5814 -12.9967 -11.2809  -7.2105  -4.3646  -4.2119   0.2388
     4.1559   7.8514   8.0040   9.2304  10.0921  10.1342  11.3039  11.3697

          k = 0.3333 0.1925 0.0000 (  4180 PWs)   bands (ev):

   -25.8569 -18.1400 -12.8808 -11.5451  -7.3933  -4.1115  -3.9196   0.3547
     4.1240   7.4946   7.6376   8.8784   9.5347   9.7954  11.1755  11.4353

          k = 0.3167 0.1828 0.0000 (  4188 PWs)   bands (ev):

   -26.0921 -17.6887 -12.7546 -11.7984  -7.5740  -4.0176  -3.4691   0.4811
     4.0595   7.1541   7.2876   8.5405   8.9671   9.4648  11.0896  11.5146

          k = 0.3000 0.1732 0.0000 (  4180 PWs)   bands (ev):

   -26.3174 -17.2290 -12.6187 -12.0402  -7.7513  -3.9314  -3.0146   0.6173
     3.9604   6.8302   6.9543   8.2170   8.3950   9.1471  11.0502  11.5763

          k = 0.2833 0.1636 0.0000 (  4182 PWs)   bands (ev):

   -26.5322 -16.7623 -12.4738 -12.2703  -7.9242  -3.8544  -2.5575   0.7625
     3.8276   6.5230   6.6377   7.8233   7.9084   8.8442  11.0572  11.2660

          k = 0.2667 0.1540 0.0000 (  4180 PWs)   bands (ev):

   -26.7360 -16.2898 -12.4882 -12.3208  -8.0916  -3.7886  -2.0993   0.9159
     3.6647   6.2329   6.3380   7.2564   7.6150   8.5572  10.9783  11.1189

          k = 0.2500 0.1443 0.0000 (  4186 PWs)   bands (ev):

   -26.9284 -15.8129 -12.6938 -12.1607  -8.2527  -3.7361  -1.6419   1.0765
     3.4773   5.9599   6.0554   6.6982   7.3373   8.2867  10.7151  11.2103

          k = 0.2333 0.1347 0.0000 (  4184 PWs)   bands (ev):

   -27.1093 -15.3329 -12.8868 -11.9947  -8.4066  -3.6996  -1.1869   1.2432
     3.2728   5.7041   5.7901   6.1521   7.0757   8.0329  10.4637  11.3386

          k = 0.2167 0.1251 0.0000 (  4186 PWs)   bands (ev):

   -27.2783 -14.8515 -13.0670 -11.8241  -8.5526  -3.6820  -0.7365   1.4146
     3.0590   5.4657   5.5422   5.6217   6.8304   7.7962  10.2267  11.4945

          k = 0.2000 0.1155 0.0000 (  4186 PWs)   bands (ev):

   -27.4353 -14.3704 -13.2344 -11.6506  -8.6901  -3.6866  -0.2932   1.5891
     2.8439   5.1101   5.2448   5.3120   6.6019   7.5767  10.0050  11.4457

          k = 0.1833 0.1058 0.0000 (  4188 PWs)   bands (ev):

   -27.5801 -13.8917 -13.3888 -11.4758  -8.8185  -3.7162   0.1403   1.7650
     2.6352   4.6205   5.0413   5.0995   6.3902   7.3745   9.7989  11.2861

          k = 0.1667 0.0962 0.0000 (  4194 PWs)   bands (ev):

   -27.7127 -13.5301 -13.4180 -11.3020  -8.9372  -3.7734   0.5607   1.9401
     2.4398   4.1560   4.8554   4.9049   6.1957   7.1897   9.6088  11.1300

          k = 0.1500 0.0866 0.0000 (  4186 PWs)   bands (ev):

   -27.8329 -13.6582 -12.9522 -11.1313  -9.0459  -3.8595   0.9646   2.1123
     2.2633   3.7200   4.6871   4.7284   6.0186   7.0224   9.4350  10.9835

          k = 0.1333 0.0770 0.0000 (  4198 PWs)   bands (ev):

   -27.9406 -13.7730 -12.4981 -10.9663  -9.1440  -3.9743   1.3478   2.1094
     2.2789   3.3158   4.5364   4.5699   5.8591   6.8726   9.2779  10.8495

          k = 0.1167 0.0674 0.0000 (  4188 PWs)   bands (ev):

   -28.0358 -13.8745 -12.0604 -10.8100  -9.2313  -4.1151   1.7056   1.9802
     2.4370   2.9470   4.4034   4.4296   5.7173   6.7404   9.1379  10.7297

          k = 0.1000 0.0577 0.0000 (  4174 PWs)   bands (ev):

   -28.1184 -13.9625 -11.6453 -10.6653  -9.3075  -4.2768   1.8759   2.0330
     2.5834   2.6171   4.2881   4.3075   5.5936   6.6258   9.0154  10.6250

          k = 0.0833 0.0481 0.0000 (  4170 PWs)   bands (ev):

   -28.1884 -14.0371 -11.2606 -10.5355  -9.3722  -4.4512   1.7951   2.3241
     2.3299   2.7151   4.1905   4.2039   5.4882   6.5288   8.9107  10.5360

          k = 0.0667 0.0385 0.0000 (  4170 PWs)   bands (ev):

   -28.2457 -14.0981 -10.9163 -10.4236  -9.4251  -4.6271   1.7352   2.0889
     2.5734   2.8285   4.1106   4.1188   5.4014   6.4495   8.8243  10.4630

          k = 0.0500 0.0289 0.0000 (  4158 PWs)   bands (ev):

   -28.2903 -14.1457 -10.6251 -10.3329  -9.4662  -4.7903   1.6931   1.8974
     2.7748   2.9207   4.0484   4.0524   5.3334   6.3878   8.7567  10.4061

          k = 0.0333 0.0192 0.0000 (  4154 PWs)   bands (ev):

   -28.3222 -14.1796 -10.4013 -10.2659  -9.4952  -4.9245   1.6657   1.7582
     2.9232   2.9889   4.0038   4.0050   5.2847   6.3437   8.7080  10.3655

          k = 0.0167 0.0096 0.0000 (  4143 PWs)   bands (ev):

   -28.3413 -14.2000 -10.2595 -10.2248  -9.5123  -5.0135   1.6504   1.6738
     3.0142   3.0307   3.9758   3.9777   5.2554   6.3173   8.6787  10.3412

          k = 0.0000 0.0000 0.0000 (  4149 PWs)   bands (ev):

   -28.3477 -14.2068 -10.2109 -10.2109  -9.5179  -5.0447   1.6454   1.6454
     3.0448   3.0448   3.9663   3.9688   5.2456   6.3085   8.6690  10.3331

     Writing all to output data dir ../../../../tmp/gr-aa-2L.save/ :
     XML data file, pseudopotentials, collected wavefunctions

     init_run     :      0.57s CPU      1.05s WALL (       1 calls)
     electrons    :    123.69s CPU     66.24s WALL (       1 calls)

     Called by init_run:
     wfcinit      :      0.00s CPU      0.00s WALL (       1 calls)
     potinit      :      0.31s CPU      0.62s WALL (       1 calls)
     hinit0       :      0.22s CPU      0.38s WALL (       1 calls)

     Called by electrons:
     c_bands      :    123.68s CPU     66.23s WALL (       1 calls)
     v_of_rho     :      0.01s CPU      0.01s WALL (       1 calls)
     newd         :      0.01s CPU      0.02s WALL (       1 calls)

     Called by c_bands:
     init_us_2    :      0.06s CPU      0.03s WALL (      91 calls)
     cegterg      :    122.38s CPU     65.50s WALL (     526 calls)

     Called by *egterg:
     cdiaghg      :      7.63s CPU      3.84s WALL (   10311 calls)
     h_psi        :     89.28s CPU     48.52s WALL (   10837 calls)
     s_psi        :      1.96s CPU      1.02s WALL (   10837 calls)
     g_psi        :      0.97s CPU      0.50s WALL (   10220 calls)

     Called by h_psi:
     h_psi:calbec :      8.45s CPU      4.46s WALL (   10837 calls)
     vloc_psi     :     76.67s CPU     41.83s WALL (   10837 calls)
     add_vuspsi   :      3.49s CPU      1.81s WALL (   10837 calls)

     General routines
     calbec       :      8.36s CPU      4.40s WALL (   10837 calls)
     fft          :      0.20s CPU      0.37s WALL (      13 calls)
     ffts         :      0.30s CPU      0.61s WALL (       1 calls)
     fftw         :     65.18s CPU     35.75s WALL (  259082 calls)
     interpolate  :      0.30s CPU      0.61s WALL (       1 calls)
     davcio       :      0.03s CPU      0.03s WALL (     182 calls)

     Parallel routines

     PWSCF        :   2m 4.39s CPU   1m 7.57s WALL


   This run was terminated on:  11:58:36  23Mar2025            

=------------------------------------------------------------------------------=
   JOB DONE.
=------------------------------------------------------------------------------=
Note: The following floating-point exceptions are signalling: IEEE_DENORMAL
