
     Program PWSCF v.7.4.1 starts on 23Mar2025 at 11:57:19 

     This program is part of the open-source Quantum ESPRESSO suite
     for quantum simulation of materials; please cite
         "P. Giannozzi et al., J. Phys.:Condens. Matter 21 395502 (2009);
         "P. Giannozzi et al., J. Phys.:Condens. Matter 29 465901 (2017);
         "P. Giannozzi et al., J. Chem. Phys. 152 154105 (2020);
          URL http://www.quantum-espresso.org", 
     in publications or presentations arising from this work. More details at
     http://www.quantum-espresso.org/quote

     Parallel version (MPI), running on     7 processors

     MPI processes distributed on     1 nodes
     11511 MiB available memory on the printing compute node when the environment starts

     Waiting for input...
     Reading input from standard input

     Current dimensions of program PWSCF are:
     Max number of different atomic species (ntypx) = 10
     Max number of k-points (npk) =  40000
     Max angular momentum in pseudopotentials (lmaxx) =  4

     R & G space division:  proc/nbgrp/npool/nimage =       7
     Subspace diagonalization in iterative solution of the eigenvalue problem:
     a serial algorithm will be used


     Parallelization info
     --------------------
     sticks:   dense  smooth     PW     G-vecs:    dense   smooth      PW
     Min          51      51     15                 4783     4783     815
     Max          52      52     16                 4800     4800     838
     Sum         361     361    109                33523    33523    5791

     Using Slab Decomposition



     bravais-lattice index     =            4
     lattice parameter (alat)  =       4.6561  a.u.
     unit-cell volume          =     532.1899 (a.u.)^3
     number of atoms/cell      =            4
     number of atomic types    =            1
     number of electrons       =        16.00
     number of Kohn-Sham states=           12
     kinetic-energy cutoff     =      60.0000  Ry
     charge density cutoff     =     240.0000  Ry
     scf convergence threshold =      1.0E-08
     mixing beta               =       0.7000
     number of iterations used =            8  plain     mixing
     Exchange-correlation= PBE
                           (   1   4   3   4   0   0   0)

     celldm(1)=   4.656107  celldm(2)=   0.000000  celldm(3)=   6.087896
     celldm(4)=   0.000000  celldm(5)=   0.000000  celldm(6)=   0.000000

     crystal axes: (cart. coord. in units of alat)
               a(1) = (   1.000000   0.000000   0.000000 )  
               a(2) = (  -0.500000   0.866025   0.000000 )  
               a(3) = (   0.000000   0.000000   6.087896 )  

     reciprocal axes: (cart. coord. in units 2 pi/alat)
               b(1) = (  1.000000  0.577350 -0.000000 )  
               b(2) = (  0.000000  1.154701  0.000000 )  
               b(3) = (  0.000000 -0.000000  0.164260 )  


     PseudoPot. # 1 for C  read from file:
     ../../../../pseudo/C.pbe-n-rrkjus_psl.0.1.UPF
     MD5 check sum: 96a6a315177d77e6c95bf6fd3870f9e3
     Pseudo is Ultrasoft + core correction, Zval =  4.0
     Generated using &quot;atomic&quot; code by A. Dal Corso  v.6.3MaX
     Using radial grid of 1073 points,  4 beta functions with: 
                l(1) =   0
                l(2) =   0
                l(3) =   1
                l(4) =   1
     Q(r) pseudized with 0 coefficients 


     atomic species   valence    mass     pseudopotential
     C                 4.00    12.01070     C ( 1.00)

     12 Sym. Ops. (no inversion) found



   Cartesian axes

     site n.     atom                  positions (alat units)
         1        C      tau(   1) = (   0.0000000   0.5773503   2.9365620  )
         2        C      tau(   2) = (   0.5000000   0.2886751   2.9365620  )
         3        C      tau(   3) = (   0.0000000   0.5773503   3.3542635  )
         4        C      tau(   4) = (   0.5000000   0.2886751   3.3542635  )

     number of k points=    19  Marzari-Vanderbilt smearing, width (Ry)=  0.0200
                       cart. coord. in units 2pi/alat
        k(    1) = (   0.0000000   0.0000000   0.0000000), wk =   0.0138889
        k(    2) = (   0.0000000   0.0962250   0.0000000), wk =   0.0833333
        k(    3) = (   0.0000000   0.1924501   0.0000000), wk =   0.0833333
        k(    4) = (   0.0000000   0.2886751   0.0000000), wk =   0.0833333
        k(    5) = (   0.0000000   0.3849002   0.0000000), wk =   0.0833333
        k(    6) = (   0.0000000   0.4811252   0.0000000), wk =   0.0833333
        k(    7) = (   0.0000000  -0.5773503   0.0000000), wk =   0.0416667
        k(    8) = (   0.0833333   0.1443376   0.0000000), wk =   0.0833333
        k(    9) = (   0.0833333   0.2405626   0.0000000), wk =   0.1666667
        k(   10) = (   0.0833333   0.3367877   0.0000000), wk =   0.1666667
        k(   11) = (   0.0833333   0.4330127   0.0000000), wk =   0.1666667
        k(   12) = (   0.0833333   0.5292377   0.0000000), wk =   0.1666667
        k(   13) = (   0.1666667   0.2886751   0.0000000), wk =   0.0833333
        k(   14) = (   0.1666667   0.3849002   0.0000000), wk =   0.1666667
        k(   15) = (   0.1666667   0.4811252   0.0000000), wk =   0.1666667
        k(   16) = (   0.1666667   0.5773503   0.0000000), wk =   0.0833333
        k(   17) = (   0.2500000   0.4330127   0.0000000), wk =   0.0833333
        k(   18) = (   0.2500000   0.5292377   0.0000000), wk =   0.1666667
        k(   19) = (   0.3333333   0.5773503   0.0000000), wk =   0.0277778

     Dense  grid:    33523 G-vectors     FFT dimensions: (  24,  24, 144)

     Estimated max dynamical RAM per process >       9.08 MB

     Estimated total dynamical RAM >      63.55 MB

     Check: negative core charge=   -0.000004

     Initial potential from superposition of free atoms

     starting charge      15.9998, renormalised to      16.0000

     negative rho (up, down):  1.109E-04 0.000E+00
     Starting wfcs are   16 randomized atomic wfcs

     total cpu time spent up to now is        0.9 secs

     per-process dynamical memory:    12.1 Mb

     Self-consistent Calculation

     iteration #  1     ecut=    60.00 Ry     beta= 0.70
     Davidson diagonalization with overlap
     ethr =  1.00E-02,  avg # of iterations =  6.5

     negative rho (up, down):  9.325E-06 0.000E+00

     total cpu time spent up to now is        1.5 secs

     total energy              =     -45.54073922 Ry
     estimated scf accuracy    <       0.88343723 Ry

     iteration #  2     ecut=    60.00 Ry     beta= 0.70
     Davidson diagonalization with overlap
     ethr =  5.52E-03,  avg # of iterations =  2.0

     negative rho (up, down):  3.688E-05 0.000E+00

     total cpu time spent up to now is        1.9 secs

     total energy              =     -45.65777660 Ry
     estimated scf accuracy    <       0.04477271 Ry

     iteration #  3     ecut=    60.00 Ry     beta= 0.70
     Davidson diagonalization with overlap
     c_bands:  1 eigenvalues not converged
     c_bands:  1 eigenvalues not converged
     c_bands:  2 eigenvalues not converged
     c_bands:  1 eigenvalues not converged
     c_bands:  2 eigenvalues not converged
     ethr =  2.80E-04,  avg # of iterations = 17.8

     negative rho (up, down):  2.073E-04 0.000E+00

     total cpu time spent up to now is        3.1 secs

     total energy              =     -45.75203038 Ry
     estimated scf accuracy    <       0.00832763 Ry

     iteration #  4     ecut=    60.00 Ry     beta= 0.70
     Davidson diagonalization with overlap
     c_bands:  1 eigenvalues not converged
     ethr =  5.20E-05,  avg # of iterations = 11.1

     negative rho (up, down):  3.185E-04 0.000E+00

     total cpu time spent up to now is        3.9 secs

     total energy              =     -45.75957564 Ry
     estimated scf accuracy    <       0.00202113 Ry

     iteration #  5     ecut=    60.00 Ry     beta= 0.70
     Davidson diagonalization with overlap
     ethr =  1.26E-05,  avg # of iterations =  9.4

     negative rho (up, down):  3.840E-04 0.000E+00

     total cpu time spent up to now is        4.7 secs

     total energy              =     -45.76100626 Ry
     estimated scf accuracy    <       0.00009734 Ry

     iteration #  6     ecut=    60.00 Ry     beta= 0.70
     Davidson diagonalization with overlap
     c_bands:  1 eigenvalues not converged
     c_bands:  1 eigenvalues not converged
     c_bands:  1 eigenvalues not converged
     c_bands:  1 eigenvalues not converged
     ethr =  6.08E-07,  avg # of iterations = 12.8

     negative rho (up, down):  3.886E-04 0.000E+00

     total cpu time spent up to now is        5.7 secs

     total energy              =     -45.76135976 Ry
     estimated scf accuracy    <       0.00000468 Ry

     iteration #  7     ecut=    60.00 Ry     beta= 0.70
     Davidson diagonalization with overlap
     c_bands:  1 eigenvalues not converged
     ethr =  2.93E-08,  avg # of iterations =  8.7

     negative rho (up, down):  3.906E-04 0.000E+00

     total cpu time spent up to now is        6.5 secs

     total energy              =     -45.76137096 Ry
     estimated scf accuracy    <       0.00000054 Ry

     iteration #  8     ecut=    60.00 Ry     beta= 0.70
     Davidson diagonalization with overlap
     c_bands:  1 eigenvalues not converged
     ethr =  3.40E-09,  avg # of iterations =  5.9

     negative rho (up, down):  3.923E-04 0.000E+00

     total cpu time spent up to now is        7.1 secs

     total energy              =     -45.76137149 Ry
     estimated scf accuracy    <       0.00000004 Ry

     iteration #  9     ecut=    60.00 Ry     beta= 0.70
     Davidson diagonalization with overlap
     ethr =  2.41E-10,  avg # of iterations =  8.7

     negative rho (up, down):  3.925E-04 0.000E+00

     total cpu time spent up to now is        7.9 secs

     total energy              =     -45.76137156 Ry
     estimated scf accuracy    <       0.00000002 Ry

     iteration # 10     ecut=    60.00 Ry     beta= 0.70
     Davidson diagonalization with overlap
     ethr =  1.18E-10,  avg # of iterations =  2.6

     negative rho (up, down):  3.924E-04 0.000E+00

     total cpu time spent up to now is        8.2 secs

     End of self-consistent calculation

          k = 0.0000 0.0000 0.0000 (  4149 PWs)   bands (ev):

   -28.3478 -14.2069 -10.2112 -10.2112  -9.5180  -5.0449   1.6453   1.6453
     3.0446   3.0446   3.8773   3.9221

          k = 0.0000 0.0962 0.0000 (  4170 PWs)   bands (ev):

   -28.1885 -14.0371 -11.2608 -10.5357  -9.3722  -4.4514   1.7948   2.3239
     2.3298   2.7149   4.1143   4.1443

          k = 0.0000 0.1925 0.0000 (  4194 PWs)   bands (ev):

   -27.7128 -13.5302 -13.4182 -11.3022  -8.9373  -3.7736   0.5606   1.9399
     2.4394   4.1558   4.8103   4.8145

          k = 0.0000 0.2887 0.0000 (  4186 PWs)   bands (ev):

   -26.9285 -15.8131 -12.6938 -12.1609  -8.2528  -3.7362  -1.6420   1.0763
     3.4768   5.9167   5.9652   6.6980

          k = 0.0000 0.3849 0.0000 (  4180 PWs)   bands (ev):

   -25.8570 -18.1401 -12.8810 -11.5452  -7.3934  -4.1116  -3.9197   0.3545
     4.1237   7.4544   7.5496   8.8165

          k = 0.0000 0.4811 0.0000 (  4172 PWs)   bands (ev):

   -24.5763 -20.2075 -13.3469 -10.1340  -6.4890  -6.0572  -4.6599  -0.1115
     4.0655   9.3902   9.5456  10.9213

          k = 0.0000-0.5774 0.0000 (  4184 PWs)   bands (ev):

   -23.6756 -21.3754 -13.5071  -8.9798  -7.4606  -5.9061  -5.0999  -0.2717
     3.9226  10.6910  11.7057  11.7522

          k = 0.0833 0.1443 0.0000 (  4169 PWs)   bands (ev):

   -27.8710 -13.6987 -12.7077 -11.2329  -9.0407  -3.8137   1.1989   2.0405
     2.0649   3.6687   4.5813   4.5889

          k = 0.0833 0.2406 0.0000 (  4180 PWs)   bands (ev):

   -27.2406 -14.7807 -13.0270 -12.2412  -8.4261  -3.3948  -0.6167   1.0406
     2.8367   5.4760   5.5033   5.7844

          k = 0.0833 0.3368 0.0000 (  4175 PWs)   bands (ev):

   -26.3105 -17.0320 -13.1412 -12.0337  -7.5998  -3.5305  -2.7720   0.1520
     3.9027   6.7999   6.8710   7.8736

          k = 0.0833 0.4330 0.0000 (  4187 PWs)   bands (ev):

   -25.1185 -19.1924 -13.7867 -10.7463  -6.6387  -4.9509  -4.0250  -0.4832
     4.3474   8.5463   8.6555   9.6103

          k = 0.0833 0.5292 0.0000 (  4195 PWs)   bands (ev):

   -23.8583 -20.9588 -14.1203  -9.2895  -6.8823  -5.6704  -4.7219  -0.8112
     4.2305  10.6387  10.7146  11.2260

          k = 0.1667 0.2887 0.0000 (  4170 PWs)   bands (ev):

   -26.4632 -16.4097 -13.6039 -12.1979  -7.6158  -3.0150  -2.0413  -0.3408
     3.6028   6.5818   6.6406   7.2314

          k = 0.1667 0.3849 0.0000 (  4172 PWs)   bands (ev):

   -25.4023 -18.2495 -14.6980 -11.0615  -6.6394  -3.8303  -3.1181  -1.4247
     4.7382   7.7906   8.1172   8.2169

          k = 0.1667 0.4811 0.0000 (  4170 PWs)   bands (ev):

   -24.1316 -20.0858 -15.3416  -9.6691  -5.7636  -5.5900  -3.6642  -2.0258
     5.1424   9.0305  10.0569  10.1730

          k = 0.1667 0.5774 0.0000 (  4178 PWs)   bands (ev):

   -23.2148 -21.2079 -15.5513  -8.5247  -7.1102  -4.7580  -4.3264  -2.2184
     5.0944  10.0934  11.6438  12.2201

          k = 0.2500 0.4330 0.0000 (  4156 PWs)   bands (ev):

   -24.2419 -19.5446 -16.0374  -9.8098  -5.5931  -4.9700  -3.1100  -2.8911
     6.2566   7.4127   9.8470   9.9252

          k = 0.2500 0.5292 0.0000 (  4161 PWs)   bands (ev):

   -22.9788 -20.8942 -16.7392  -8.3947  -6.3934  -4.6228  -3.6187  -3.5646
     6.6811   8.5884  11.2262  11.9163

          k = 0.3333 0.5774 0.0000 (  4152 PWs)   bands (ev):

   -21.8335 -21.8335 -17.3190  -7.1724  -7.1724  -4.4034  -3.9069  -3.9069
     8.1289   8.1289  10.9640  13.6125

     the Fermi energy is     2.1956 ev

!    total energy              =     -45.76137157 Ry
     estimated scf accuracy    <          5.2E-10 Ry
     smearing contrib. (-TS)   =      -0.00021892 Ry
     internal energy E=F+TS    =     -45.76115265 Ry

     The total energy is F=E-TS. E is the sum of the following terms:
     one-electron contribution =    -564.59334562 Ry
     hartree contribution      =     286.72017379 Ry
     xc contribution           =     -18.48323599 Ry
     ewald contribution        =     250.59525517 Ry

     convergence has been achieved in  10 iterations

     Writing all to output data dir ../../../../tmp/gr-aa-2L.save/ :
     XML data file, charge density, pseudopotentials, collected wavefunctions

     init_run     :      0.61s CPU      0.81s WALL (       1 calls)
     electrons    :     13.60s CPU      7.37s WALL (       1 calls)

     Called by init_run:
     wfcinit      :      0.25s CPU      0.14s WALL (       1 calls)
     potinit      :      0.01s CPU      0.01s WALL (       1 calls)
     hinit0       :      0.33s CPU      0.63s WALL (       1 calls)

     Called by electrons:
     c_bands      :     12.27s CPU      6.57s WALL (      10 calls)
     sum_band     :      1.09s CPU      0.59s WALL (      10 calls)
     v_of_rho     :      0.08s CPU      0.08s WALL (      11 calls)
     newd         :      0.11s CPU      0.09s WALL (      11 calls)
     mix_rho      :      0.04s CPU      0.03s WALL (      10 calls)

     Called by c_bands:
     init_us_2    :      0.15s CPU      0.08s WALL (     399 calls)
     cegterg      :     12.02s CPU      6.44s WALL (     190 calls)

     Called by *egterg:
     cdiaghg      :      0.75s CPU      0.38s WALL (    1815 calls)
     h_psi        :      8.89s CPU      4.83s WALL (    1834 calls)
     s_psi        :      0.24s CPU      0.13s WALL (    1834 calls)
     g_psi        :      0.08s CPU      0.04s WALL (    1625 calls)

     Called by h_psi:
     h_psi:calbec :      1.15s CPU      0.59s WALL (    1834 calls)
     vloc_psi     :      7.23s CPU      3.95s WALL (    1834 calls)
     add_vuspsi   :      0.41s CPU      0.22s WALL (    1834 calls)

     General routines
     calbec       :      1.23s CPU      0.63s WALL (    2024 calls)
     fft          :      0.35s CPU      0.64s WALL (     121 calls)
     ffts         :      0.01s CPU      0.00s WALL (      10 calls)
     fftw         :      6.68s CPU      3.65s WALL (   26594 calls)

     Parallel routines

     PWSCF        :     14.27s CPU      8.26s WALL


   This run was terminated on:  11:57:27  23Mar2025            

=------------------------------------------------------------------------------=
   JOB DONE.
=------------------------------------------------------------------------------=
