
     Program PWSCF v.7.4.1 starts on 19Mar2025 at  5: 2:40 

     This program is part of the open-source Quantum ESPRESSO suite
     for quantum simulation of materials; please cite
         "P. Giannozzi et al., J. Phys.:Condens. Matter 21 395502 (2009);
         "P. Giannozzi et al., J. Phys.:Condens. Matter 29 465901 (2017);
         "P. Giannozzi et al., J. Chem. Phys. 152 154105 (2020);
          URL http://www.quantum-espresso.org", 
     in publications or presentations arising from this work. More details at
     http://www.quantum-espresso.org/quote

     Parallel version (MPI), running on     7 processors

     MPI processes distributed on     1 nodes
     2428 MiB available memory on the printing compute node when the environment starts

     Waiting for input...
     Reading input from standard input

     Current dimensions of program PWSCF are:
     Max number of different atomic species (ntypx) = 10
     Max number of k-points (npk) =  40000
     Max angular momentum in pseudopotentials (lmaxx) =  4

     R & G space division:  proc/nbgrp/npool/nimage =       7
     Subspace diagonalization in iterative solution of the eigenvalue problem:
     a serial algorithm will be used


     Parallelization info
     --------------------
     sticks:   dense  smooth     PW     G-vecs:    dense   smooth      PW
     Min          51      51     15                 4783     4783     815
     Max          52      52     16                 4800     4800     838
     Sum         361     361    109                33523    33523    5791

     Using Slab Decomposition



     bravais-lattice index     =            4
     lattice parameter (alat)  =       4.6561  a.u.
     unit-cell volume          =     532.1899 (a.u.)^3
     number of atoms/cell      =            4
     number of atomic types    =            1
     number of electrons       =        16.00
     number of Kohn-Sham states=           12
     kinetic-energy cutoff     =      60.0000  Ry
     charge density cutoff     =     240.0000  Ry
     scf convergence threshold =      1.0E-06
     mixing beta               =       0.7000
     number of iterations used =            8  plain     mixing
     Exchange-correlation= PBE
                           (   1   4   3   4   0   0   0)

     celldm(1)=   4.656107  celldm(2)=   0.000000  celldm(3)=   6.087896
     celldm(4)=   0.000000  celldm(5)=   0.000000  celldm(6)=   0.000000

     crystal axes: (cart. coord. in units of alat)
               a(1) = (   1.000000   0.000000   0.000000 )  
               a(2) = (  -0.500000   0.866025   0.000000 )  
               a(3) = (   0.000000   0.000000   6.087896 )  

     reciprocal axes: (cart. coord. in units 2 pi/alat)
               b(1) = (  1.000000  0.577350 -0.000000 )  
               b(2) = (  0.000000  1.154701  0.000000 )  
               b(3) = (  0.000000 -0.000000  0.164260 )  


     PseudoPot. # 1 for C  read from file:
     ../../../../pseudo/C.pbe-n-rrkjus_psl.0.1.UPF
     MD5 check sum: 96a6a315177d77e6c95bf6fd3870f9e3
     Pseudo is Ultrasoft + core correction, Zval =  4.0
     Generated using &quot;atomic&quot; code by A. Dal Corso  v.6.3MaX
     Using radial grid of 1073 points,  4 beta functions with: 
                l(1) =   0
                l(2) =   0
                l(3) =   1
                l(4) =   1
     Q(r) pseudized with 0 coefficients 


     atomic species   valence    mass     pseudopotential
     C                 4.00    12.01070     C ( 1.00)

     12 Sym. Ops. (no inversion) found



   Cartesian axes

     site n.     atom                  positions (alat units)
         1        C      tau(   1) = (   0.0000000   0.5773503   2.9365620  )
         2        C      tau(   2) = (   0.5000000   0.2886751   2.9365620  )
         3        C      tau(   3) = (   0.0000000   0.5773503   3.3542635  )
         4        C      tau(   4) = (   0.5000000   0.2886751   3.3542635  )

     number of k points=    19  Marzari-Vanderbilt smearing, width (Ry)=  0.0200
                       cart. coord. in units 2pi/alat
        k(    1) = (   0.0000000   0.0000000   0.0000000), wk =   0.0138889
        k(    2) = (   0.0000000   0.0962250   0.0000000), wk =   0.0833333
        k(    3) = (   0.0000000   0.1924501   0.0000000), wk =   0.0833333
        k(    4) = (   0.0000000   0.2886751   0.0000000), wk =   0.0833333
        k(    5) = (   0.0000000   0.3849002   0.0000000), wk =   0.0833333
        k(    6) = (   0.0000000   0.4811252   0.0000000), wk =   0.0833333
        k(    7) = (   0.0000000  -0.5773503   0.0000000), wk =   0.0416667
        k(    8) = (   0.0833333   0.1443376   0.0000000), wk =   0.0833333
        k(    9) = (   0.0833333   0.2405626   0.0000000), wk =   0.1666667
        k(   10) = (   0.0833333   0.3367877   0.0000000), wk =   0.1666667
        k(   11) = (   0.0833333   0.4330127   0.0000000), wk =   0.1666667
        k(   12) = (   0.0833333   0.5292377   0.0000000), wk =   0.1666667
        k(   13) = (   0.1666667   0.2886751   0.0000000), wk =   0.0833333
        k(   14) = (   0.1666667   0.3849002   0.0000000), wk =   0.1666667
        k(   15) = (   0.1666667   0.4811252   0.0000000), wk =   0.1666667
        k(   16) = (   0.1666667   0.5773503   0.0000000), wk =   0.0833333
        k(   17) = (   0.2500000   0.4330127   0.0000000), wk =   0.0833333
        k(   18) = (   0.2500000   0.5292377   0.0000000), wk =   0.1666667
        k(   19) = (   0.3333333   0.5773503   0.0000000), wk =   0.0277778

     Dense  grid:    33523 G-vectors     FFT dimensions: (  24,  24, 144)

     Estimated max dynamical RAM per process >       9.08 MB

     Estimated total dynamical RAM >      63.55 MB

     Check: negative core charge=   -0.000004

     Initial potential from superposition of free atoms

     starting charge      15.9998, renormalised to      16.0000

     negative rho (up, down):  1.109E-04 0.000E+00
     Starting wfcs are   16 randomized atomic wfcs

     total cpu time spent up to now is        0.9 secs

     per-process dynamical memory:    12.1 Mb

     Self-consistent Calculation

     iteration #  1     ecut=    60.00 Ry     beta= 0.70
     Davidson diagonalization with overlap
     ethr =  1.00E-02,  avg # of iterations =  6.5

     negative rho (up, down):  9.325E-06 0.000E+00

     total cpu time spent up to now is        1.6 secs

     total energy              =     -45.54073922 Ry
     estimated scf accuracy    <       0.88343723 Ry

     iteration #  2     ecut=    60.00 Ry     beta= 0.70
     Davidson diagonalization with overlap
     ethr =  5.52E-03,  avg # of iterations =  2.0

     negative rho (up, down):  3.688E-05 0.000E+00

     total cpu time spent up to now is        1.9 secs

     total energy              =     -45.65777660 Ry
     estimated scf accuracy    <       0.04477271 Ry

     iteration #  3     ecut=    60.00 Ry     beta= 0.70
     Davidson diagonalization with overlap
     c_bands:  1 eigenvalues not converged
     c_bands:  1 eigenvalues not converged
     c_bands:  2 eigenvalues not converged
     c_bands:  1 eigenvalues not converged
     c_bands:  2 eigenvalues not converged
     ethr =  2.80E-04,  avg # of iterations = 17.8

     negative rho (up, down):  2.073E-04 0.000E+00

     total cpu time spent up to now is        3.3 secs

     total energy              =     -45.75203038 Ry
     estimated scf accuracy    <       0.00832763 Ry

     iteration #  4     ecut=    60.00 Ry     beta= 0.70
     Davidson diagonalization with overlap
     c_bands:  1 eigenvalues not converged
     ethr =  5.20E-05,  avg # of iterations = 11.1

     negative rho (up, down):  3.185E-04 0.000E+00

     total cpu time spent up to now is        4.1 secs

     total energy              =     -45.75957564 Ry
     estimated scf accuracy    <       0.00202113 Ry

     iteration #  5     ecut=    60.00 Ry     beta= 0.70
     Davidson diagonalization with overlap
     ethr =  1.26E-05,  avg # of iterations =  9.4

     negative rho (up, down):  3.840E-04 0.000E+00

     total cpu time spent up to now is        4.8 secs

     total energy              =     -45.76100626 Ry
     estimated scf accuracy    <       0.00009734 Ry

     iteration #  6     ecut=    60.00 Ry     beta= 0.70
     Davidson diagonalization with overlap
     c_bands:  1 eigenvalues not converged
     c_bands:  1 eigenvalues not converged
     c_bands:  1 eigenvalues not converged
     c_bands:  1 eigenvalues not converged
     ethr =  6.08E-07,  avg # of iterations = 12.8

     negative rho (up, down):  3.886E-04 0.000E+00

     total cpu time spent up to now is        6.0 secs

     total energy              =     -45.76135976 Ry
     estimated scf accuracy    <       0.00000468 Ry

     iteration #  7     ecut=    60.00 Ry     beta= 0.70
     Davidson diagonalization with overlap
     c_bands:  1 eigenvalues not converged
     ethr =  2.93E-08,  avg # of iterations =  8.7

     negative rho (up, down):  3.923E-04 0.000E+00

     total cpu time spent up to now is        6.8 secs

     End of self-consistent calculation

          k = 0.0000 0.0000 0.0000 (  4149 PWs)   bands (ev):

   -28.3456 -14.2044 -10.2089 -10.2089  -9.5156  -5.0429   1.6476   1.6476
     3.0471   3.0471   3.8766   3.9223

          k = 0.0000 0.0962 0.0000 (  4170 PWs)   bands (ev):

   -28.1864 -14.0346 -11.2586 -10.5334  -9.3699  -4.4494   1.7971   2.3264
     2.3320   2.7175   4.1139   4.1445

          k = 0.0000 0.1925 0.0000 (  4194 PWs)   bands (ev):

   -27.7107 -13.5277 -13.4160 -11.2999  -8.9349  -3.7715   0.5631   1.9424
     2.4416   4.1581   4.8094   4.8152

          k = 0.0000 0.2887 0.0000 (  4186 PWs)   bands (ev):

   -26.9264 -15.8109 -12.6913 -12.1586  -8.2504  -3.7341  -1.6395   1.0788
     3.4791   5.9168   5.9648   6.7002

          k = 0.0000 0.3849 0.0000 (  4180 PWs)   bands (ev):

   -25.8548 -18.1380 -12.8788 -11.5427  -7.3911  -4.1094  -3.9172   0.3570
     4.1261   7.4548   7.5491   8.8167

          k = 0.0000 0.4811 0.0000 (  4172 PWs)   bands (ev):

   -24.5742 -20.2053 -13.3446 -10.1315  -6.4867  -6.0547  -4.6576  -0.1090
     4.0679   9.3907   9.5455  10.9242

          k = 0.0000-0.5774 0.0000 (  4184 PWs)   bands (ev):

   -23.6735 -21.3732 -13.5048  -8.9773  -7.4581  -5.9039  -5.0975  -0.2692
     3.9249  10.6936  11.7063  11.9391

          k = 0.0833 0.1443 0.0000 (  4169 PWs)   bands (ev):

   -27.8688 -13.6962 -12.7055 -11.2306  -9.0383  -3.8116   1.2014   2.0430
     2.0671   3.6710   4.5802   4.5896

          k = 0.0833 0.2406 0.0000 (  4180 PWs)   bands (ev):

   -27.2385 -14.7786 -13.0245 -12.2389  -8.4237  -3.3927  -0.6142   1.0431
     2.8389   5.4760   5.5031   5.7868

          k = 0.0833 0.3368 0.0000 (  4175 PWs)   bands (ev):

   -26.3084 -17.0299 -13.1389 -12.0312  -7.5974  -3.5283  -2.7695   0.1545
     3.9051   6.8002   6.8708   7.8764

          k = 0.0833 0.4330 0.0000 (  4187 PWs)   bands (ev):

   -25.1164 -19.1903 -13.7844 -10.7438  -6.6363  -4.9484  -4.0228  -0.4807
     4.3498   8.5468   8.6552   9.6124

          k = 0.0833 0.5292 0.0000 (  4195 PWs)   bands (ev):

   -23.8562 -20.9566 -14.1180  -9.2870  -6.8798  -5.6681  -4.7196  -0.8087
     4.2329  10.6399  10.7152  11.2278

          k = 0.1667 0.2887 0.0000 (  4170 PWs)   bands (ev):

   -26.4610 -16.4075 -13.6017 -12.1954  -7.6135  -3.0129  -2.0388  -0.3383
     3.6051   6.5819   6.6406   7.2340

          k = 0.1667 0.3849 0.0000 (  4172 PWs)   bands (ev):

   -25.4002 -18.2474 -14.6957 -11.0590  -6.6371  -3.8278  -3.1159  -1.4222
     4.7404   7.7930   8.1176   8.2174

          k = 0.1667 0.4811 0.0000 (  4170 PWs)   bands (ev):

   -24.1295 -20.0837 -15.3393  -9.6666  -5.7611  -5.5876  -3.6619  -2.0233
     5.1447   9.0326  10.0576  10.1730

          k = 0.1667 0.5774 0.0000 (  4178 PWs)   bands (ev):

   -23.2126 -21.2057 -15.5491  -8.5222  -7.1077  -4.7556  -4.3241  -2.2159
     5.0967  10.0956  11.6457  12.2221

          k = 0.2500 0.4330 0.0000 (  4156 PWs)   bands (ev):

   -24.2398 -19.5425 -16.0351  -9.8073  -5.5907  -4.9675  -3.1077  -2.8886
     6.2589   7.4150   9.8477   9.9255

          k = 0.2500 0.5292 0.0000 (  4161 PWs)   bands (ev):

   -22.9767 -20.8921 -16.7370  -8.3922  -6.3909  -4.6204  -3.6162  -3.5623
     6.6835   8.5906  11.2276  11.9178

          k = 0.3333 0.5774 0.0000 (  4152 PWs)   bands (ev):

   -21.8314 -21.8314 -17.3167  -7.1699  -7.1699  -4.4009  -3.9045  -3.9045
     8.1311   8.1311  10.9661  13.6140

     the Fermi energy is     2.1980 ev

!    total energy              =     -45.76137077 Ry
     estimated scf accuracy    <       0.00000054 Ry
     smearing contrib. (-TS)   =      -0.00021929 Ry
     internal energy E=F+TS    =     -45.76115148 Ry

     The total energy is F=E-TS. E is the sum of the following terms:
     one-electron contribution =    -564.59232651 Ry
     hartree contribution      =     286.71907774 Ry
     xc contribution           =     -18.48315789 Ry
     ewald contribution        =     250.59525517 Ry

     convergence has been achieved in   7 iterations

     Writing all to output data dir ../../../../tmp/gr-aa-2L.save/ :
     XML data file, charge density, pseudopotentials, collected wavefunctions

     init_run     :      0.60s CPU      0.80s WALL (       1 calls)
     electrons    :     10.26s CPU      5.90s WALL (       1 calls)

     Called by init_run:
     wfcinit      :      0.24s CPU      0.14s WALL (       1 calls)
     potinit      :      0.01s CPU      0.01s WALL (       1 calls)
     hinit0       :      0.32s CPU      0.62s WALL (       1 calls)

     Called by electrons:
     c_bands      :      9.34s CPU      5.31s WALL (       7 calls)
     sum_band     :      0.72s CPU      0.42s WALL (       7 calls)
     v_of_rho     :      0.06s CPU      0.06s WALL (       8 calls)
     newd         :      0.10s CPU      0.11s WALL (       8 calls)
     mix_rho      :      0.03s CPU      0.02s WALL (       7 calls)

     Called by c_bands:
     init_us_2    :      0.11s CPU      0.06s WALL (     285 calls)
     cegterg      :      9.17s CPU      5.22s WALL (     133 calls)

     Called by *egterg:
     cdiaghg      :      0.60s CPU      0.34s WALL (    1429 calls)
     h_psi        :      6.91s CPU      3.97s WALL (    1448 calls)
     s_psi        :      0.18s CPU      0.10s WALL (    1448 calls)
     g_psi        :      0.07s CPU      0.04s WALL (    1296 calls)

     Called by h_psi:
     h_psi:calbec :      0.85s CPU      0.48s WALL (    1448 calls)
     vloc_psi     :      5.60s CPU      3.24s WALL (    1448 calls)
     add_vuspsi   :      0.37s CPU      0.21s WALL (    1448 calls)

     General routines
     calbec       :      0.90s CPU      0.51s WALL (    1581 calls)
     fft          :      0.33s CPU      0.62s WALL (      88 calls)
     ffts         :      0.00s CPU      0.00s WALL (       7 calls)
     fftw         :      5.04s CPU      2.93s WALL (   20386 calls)

     Parallel routines

     PWSCF        :     10.93s CPU      6.80s WALL


   This run was terminated on:   5: 2:47  19Mar2025            

=------------------------------------------------------------------------------=
   JOB DONE.
=------------------------------------------------------------------------------=
