
     Program PWSCF v.7.4.1 starts on 16Apr2025 at 15:15:36 

     This program is part of the open-source Quantum ESPRESSO suite
     for quantum simulation of materials; please cite
         "P. Giannozzi et al., J. Phys.:Condens. Matter 21 395502 (2009);
         "P. Giannozzi et al., J. Phys.:Condens. Matter 29 465901 (2017);
         "P. Giannozzi et al., J. Chem. Phys. 152 154105 (2020);
          URL http://www.quantum-espresso.org", 
     in publications or presentations arising from this work. More details at
     http://www.quantum-espresso.org/quote

     Parallel version (MPI), running on     7 processors

     MPI processes distributed on     1 nodes
     14749 MiB available memory on the printing compute node when the environment starts

     Waiting for input...
     Reading input from standard input

     Current dimensions of program PWSCF are:
     Max number of different atomic species (ntypx) = 10
     Max number of k-points (npk) =  40000
     Max angular momentum in pseudopotentials (lmaxx) =  4

     R & G space division:  proc/nbgrp/npool/nimage =       7
     Subspace diagonalization in iterative solution of the eigenvalue problem:
     a serial algorithm will be used


     Parallelization info
     --------------------
     sticks:   dense  smooth     PW     G-vecs:    dense   smooth      PW
     Min          44      44     15                 4122     4122     733
     Max          45      45     16                 4159     4159     742
     Sum         313     313    109                29029    29029    5163

     Using Slab Decomposition



     bravais-lattice index     =            4
     lattice parameter (alat)  =       4.6561  a.u.
     unit-cell volume          =     532.1899 (a.u.)^3
     number of atoms/cell      =            8
     number of atomic types    =            1
     number of electrons       =        32.00
     number of Kohn-Sham states=           20
     kinetic-energy cutoff     =      55.0000  Ry
     charge density cutoff     =     220.0000  Ry
     scf convergence threshold =      1.0E-08
     mixing beta               =       0.7000
     number of iterations used =            8  plain     mixing
     Exchange-correlation= PBE
                           (   1   4   3   4   0   0   0)

     celldm(1)=   4.656107  celldm(2)=   0.000000  celldm(3)=   6.087896
     celldm(4)=   0.000000  celldm(5)=   0.000000  celldm(6)=   0.000000

     crystal axes: (cart. coord. in units of alat)
               a(1) = (   1.000000   0.000000   0.000000 )  
               a(2) = (  -0.500000   0.866025   0.000000 )  
               a(3) = (   0.000000   0.000000   6.087896 )  

     reciprocal axes: (cart. coord. in units 2 pi/alat)
               b(1) = (  1.000000  0.577350 -0.000000 )  
               b(2) = (  0.000000  1.154701  0.000000 )  
               b(3) = (  0.000000 -0.000000  0.164260 )  


     PseudoPot. # 1 for C  read from file:
     /run/media/rfa/SATA/Skripsi/DFT/Graphene-copy/pseudo/C.pbe-n-rrkjus_psl.0.1.UPF
     MD5 check sum: 96a6a315177d77e6c95bf6fd3870f9e3
     Pseudo is Ultrasoft + core correction, Zval =  4.0
     Generated using &quot;atomic&quot; code by A. Dal Corso  v.6.3MaX
     Using radial grid of 1073 points,  4 beta functions with: 
                l(1) =   0
                l(2) =   0
                l(3) =   1
                l(4) =   1
     Q(r) pseudized with 0 coefficients 


     atomic species   valence    mass     pseudopotential
     C                 4.00    12.01070     C ( 1.00)

      6 Sym. Ops. (no inversion) found



   Cartesian axes

     site n.     atom                  positions (alat units)
         1        C      tau(   1) = (   0.0000000   0.5773503   3.0439478  )
         2        C      tau(   2) = (   0.5000000   0.2886751   3.0439478  )
         3        C      tau(   3) = (   0.0000000   0.0000000   3.2468777  )
         4        C      tau(   4) = (   0.0000000   0.5773503   3.2468777  )
         5        C      tau(   5) = (   0.0000000   0.5773503   3.4498075  )
         6        C      tau(   6) = (   0.5000000   0.2886751   3.4498075  )
         7        C      tau(   7) = (   0.0000000   0.0000000   3.6527374  )
         8        C      tau(   8) = (   0.0000000   0.5773503   3.6527374  )

     number of k points=    19  Marzari-Vanderbilt smearing, width (Ry)=  0.0200
                       cart. coord. in units 2pi/alat
        k(    1) = (   0.0000000   0.0000000   0.0000000), wk =   0.0138889
        k(    2) = (   0.0000000   0.0962250   0.0000000), wk =   0.0833333
        k(    3) = (   0.0000000   0.1924501   0.0000000), wk =   0.0833333
        k(    4) = (   0.0000000   0.2886751   0.0000000), wk =   0.0833333
        k(    5) = (   0.0000000   0.3849002   0.0000000), wk =   0.0833333
        k(    6) = (   0.0000000   0.4811252   0.0000000), wk =   0.0833333
        k(    7) = (   0.0000000  -0.5773503   0.0000000), wk =   0.0416667
        k(    8) = (   0.0833333   0.1443376   0.0000000), wk =   0.0833333
        k(    9) = (   0.0833333   0.2405626   0.0000000), wk =   0.1666667
        k(   10) = (   0.0833333   0.3367877   0.0000000), wk =   0.1666667
        k(   11) = (   0.0833333   0.4330127   0.0000000), wk =   0.1666667
        k(   12) = (   0.0833333   0.5292377   0.0000000), wk =   0.1666667
        k(   13) = (   0.1666667   0.2886751   0.0000000), wk =   0.0833333
        k(   14) = (   0.1666667   0.3849002   0.0000000), wk =   0.1666667
        k(   15) = (   0.1666667   0.4811252   0.0000000), wk =   0.1666667
        k(   16) = (   0.1666667   0.5773503   0.0000000), wk =   0.0833333
        k(   17) = (   0.2500000   0.4330127   0.0000000), wk =   0.0833333
        k(   18) = (   0.2500000   0.5292377   0.0000000), wk =   0.1666667
        k(   19) = (   0.3333333   0.5773503   0.0000000), wk =   0.0277778

     Dense  grid:    29029 G-vectors     FFT dimensions: (  24,  24, 135)

     Estimated max dynamical RAM per process >      10.68 MB

     Estimated total dynamical RAM >      74.74 MB

     Check: negative core charge=   -0.000002

     Initial potential from superposition of free atoms

     starting charge      31.9997, renormalised to      32.0000

     negative rho (up, down):  3.042E-04 0.000E+00
     Starting wfcs are   32 randomized atomic wfcs

     total cpu time spent up to now is        0.7 secs

     per-process dynamical memory:    13.4 Mb

     Self-consistent Calculation

     iteration #  1     ecut=    55.00 Ry     beta= 0.70
     Davidson diagonalization with overlap
     ethr =  1.00E-02,  avg # of iterations = 10.4

     negative rho (up, down):  7.022E-03 0.000E+00

     total cpu time spent up to now is        2.6 secs

     total energy              =     -41.08886606 Ry
     estimated scf accuracy    <      38.84584058 Ry

     iteration #  2     ecut=    55.00 Ry     beta= 0.70
     Davidson diagonalization with overlap
     c_bands:  1 eigenvalues not converged
     c_bands:  1 eigenvalues not converged
     c_bands:  3 eigenvalues not converged
     c_bands:  2 eigenvalues not converged
     c_bands:  1 eigenvalues not converged
     ethr =  1.00E-02,  avg # of iterations = 18.2

     total cpu time spent up to now is        5.2 secs

     total energy              =     -23.48120109 Ry
     estimated scf accuracy    <     143.12196323 Ry

     iteration #  3     ecut=    55.00 Ry     beta= 0.70
     Davidson diagonalization with overlap
     c_bands:  1 eigenvalues not converged
     c_bands:  2 eigenvalues not converged
     ethr =  1.00E-02,  avg # of iterations = 14.1

     total cpu time spent up to now is        7.5 secs

     total energy              =     -59.17462147 Ry
     estimated scf accuracy    <      10.05036963 Ry

     iteration #  4     ecut=    55.00 Ry     beta= 0.70
     Davidson diagonalization with overlap
     ethr =  1.00E-02,  avg # of iterations =  5.1

     total cpu time spent up to now is        8.3 secs

     total energy              =     -59.84370123 Ry
     estimated scf accuracy    <       2.12923363 Ry

     iteration #  5     ecut=    55.00 Ry     beta= 0.70
     Davidson diagonalization with overlap
     ethr =  6.65E-03,  avg # of iterations =  2.6

     total cpu time spent up to now is        9.0 secs

     total energy              =     -59.66349908 Ry
     estimated scf accuracy    <       1.44463551 Ry

     iteration #  6     ecut=    55.00 Ry     beta= 0.70
     Davidson diagonalization with overlap
     ethr =  4.51E-03,  avg # of iterations =  3.5

     total cpu time spent up to now is        9.7 secs

     total energy              =     -59.66893569 Ry
     estimated scf accuracy    <       1.33248039 Ry

     iteration #  7     ecut=    55.00 Ry     beta= 0.70
     Davidson diagonalization with overlap
     ethr =  4.16E-03,  avg # of iterations =  1.7

     total cpu time spent up to now is       10.2 secs

     total energy              =     -59.70569318 Ry
     estimated scf accuracy    <       0.49811429 Ry

     iteration #  8     ecut=    55.00 Ry     beta= 0.70
     Davidson diagonalization with overlap
     ethr =  1.56E-03,  avg # of iterations =  6.1

     total cpu time spent up to now is       11.2 secs

     total energy              =     -59.96405339 Ry
     estimated scf accuracy    <       0.35053681 Ry

     iteration #  9     ecut=    55.00 Ry     beta= 0.70
     Davidson diagonalization with overlap
     ethr =  1.10E-03,  avg # of iterations =  4.1

     total cpu time spent up to now is       12.0 secs

     total energy              =     -59.82831359 Ry
     estimated scf accuracy    <       0.48278823 Ry

     iteration # 10     ecut=    55.00 Ry     beta= 0.70
     Davidson diagonalization with overlap
     ethr =  1.10E-03,  avg # of iterations =  2.4

     negative rho (up, down):  9.689E-05 0.000E+00

     total cpu time spent up to now is       12.6 secs

     total energy              =     -59.75874983 Ry
     estimated scf accuracy    <       0.13063287 Ry

     iteration # 11     ecut=    55.00 Ry     beta= 0.70
     Davidson diagonalization with overlap
     c_bands:  1 eigenvalues not converged
     c_bands:  1 eigenvalues not converged
     c_bands:  1 eigenvalues not converged
     ethr =  4.08E-04,  avg # of iterations = 11.6

     negative rho (up, down):  5.739E-03 0.000E+00

     total cpu time spent up to now is       14.0 secs

     total energy              =     -59.89905097 Ry
     estimated scf accuracy    <       0.06864723 Ry

     iteration # 12     ecut=    55.00 Ry     beta= 0.70
     Davidson diagonalization with overlap
     c_bands:  1 eigenvalues not converged
     c_bands:  1 eigenvalues not converged
     c_bands:  2 eigenvalues not converged
     ethr =  2.15E-04,  avg # of iterations =  9.8

     negative rho (up, down):  6.250E-03 0.000E+00

     total cpu time spent up to now is       15.1 secs

     total energy              =     -59.90025433 Ry
     estimated scf accuracy    <       0.24039161 Ry

     iteration # 13     ecut=    55.00 Ry     beta= 0.70
     Davidson diagonalization with overlap
     ethr =  2.15E-04,  avg # of iterations =  1.6

     negative rho (up, down):  8.575E-03 0.000E+00

     total cpu time spent up to now is       15.7 secs

     total energy              =     -59.83832698 Ry
     estimated scf accuracy    <       0.18959114 Ry

     iteration # 14     ecut=    55.00 Ry     beta= 0.70
     Davidson diagonalization with overlap
     ethr =  2.15E-04,  avg # of iterations =  2.5

     negative rho (up, down):  5.164E-03 0.000E+00

     total cpu time spent up to now is       16.3 secs

     total energy              =     -59.81861543 Ry
     estimated scf accuracy    <       0.05714162 Ry

     iteration # 15     ecut=    55.00 Ry     beta= 0.70
     Davidson diagonalization with overlap
     ethr =  1.79E-04,  avg # of iterations =  6.3

     negative rho (up, down):  4.660E-03 0.000E+00

     total cpu time spent up to now is       17.2 secs

     total energy              =     -59.83825761 Ry
     estimated scf accuracy    <       0.00262245 Ry

     iteration # 16     ecut=    55.00 Ry     beta= 0.70
     Davidson diagonalization with overlap
     c_bands:  2 eigenvalues not converged
     c_bands:  2 eigenvalues not converged
     c_bands:  1 eigenvalues not converged
     c_bands:  1 eigenvalues not converged
     c_bands:  1 eigenvalues not converged
     c_bands:  1 eigenvalues not converged
     c_bands:  1 eigenvalues not converged
     c_bands:  1 eigenvalues not converged
     c_bands:  2 eigenvalues not converged
     c_bands:  1 eigenvalues not converged
     ethr =  8.20E-06,  avg # of iterations = 17.5

     negative rho (up, down):  3.692E-03 0.000E+00

     total cpu time spent up to now is       19.9 secs

     total energy              =     -59.84807603 Ry
     estimated scf accuracy    <       0.00514578 Ry

     iteration # 17     ecut=    55.00 Ry     beta= 0.70
     Davidson diagonalization with overlap
     c_bands:  2 eigenvalues not converged
     c_bands:  2 eigenvalues not converged
     c_bands:  2 eigenvalues not converged
     c_bands:  1 eigenvalues not converged
     ethr =  8.20E-06,  avg # of iterations =  6.3

     negative rho (up, down):  2.458E-03 0.000E+00

     total cpu time spent up to now is       20.7 secs

     total energy              =     -59.84463072 Ry
     estimated scf accuracy    <       0.00740336 Ry

     iteration # 18     ecut=    55.00 Ry     beta= 0.70
     Davidson diagonalization with overlap
     c_bands:  1 eigenvalues not converged
     c_bands:  1 eigenvalues not converged
     ethr =  8.20E-06,  avg # of iterations =  8.4

     negative rho (up, down):  2.968E-03 0.000E+00

     total cpu time spent up to now is       21.7 secs

     total energy              =     -59.84579988 Ry
     estimated scf accuracy    <       0.00195333 Ry

     iteration # 19     ecut=    55.00 Ry     beta= 0.70
     Davidson diagonalization with overlap
     ethr =  6.10E-06,  avg # of iterations =  2.1

     negative rho (up, down):  3.487E-03 0.000E+00

     total cpu time spent up to now is       22.3 secs

     total energy              =     -59.84605224 Ry
     estimated scf accuracy    <       0.00105651 Ry

     iteration # 20     ecut=    55.00 Ry     beta= 0.70
     Davidson diagonalization with overlap
     ethr =  3.30E-06,  avg # of iterations =  3.5

     negative rho (up, down):  3.507E-03 0.000E+00

     total cpu time spent up to now is       23.0 secs

     total energy              =     -59.84604071 Ry
     estimated scf accuracy    <       0.00115189 Ry

     iteration # 21     ecut=    55.00 Ry     beta= 0.70
     Davidson diagonalization with overlap
     ethr =  3.30E-06,  avg # of iterations =  1.1

     negative rho (up, down):  3.515E-03 0.000E+00

     total cpu time spent up to now is       23.5 secs

     total energy              =     -59.84606894 Ry
     estimated scf accuracy    <       0.00102066 Ry

     iteration # 22     ecut=    55.00 Ry     beta= 0.70
     Davidson diagonalization with overlap
     ethr =  3.19E-06,  avg # of iterations =  1.0

     negative rho (up, down):  3.507E-03 0.000E+00

     total cpu time spent up to now is       24.1 secs

     total energy              =     -59.84608018 Ry
     estimated scf accuracy    <       0.00102519 Ry

     iteration # 23     ecut=    55.00 Ry     beta= 0.70
     Davidson diagonalization with overlap
     ethr =  3.19E-06,  avg # of iterations =  1.0

     negative rho (up, down):  3.495E-03 0.000E+00

     total cpu time spent up to now is       24.6 secs

     total energy              =     -59.84610797 Ry
     estimated scf accuracy    <       0.00101069 Ry

     iteration # 24     ecut=    55.00 Ry     beta= 0.70
     Davidson diagonalization with overlap
     ethr =  3.16E-06,  avg # of iterations =  1.0

     negative rho (up, down):  3.345E-03 0.000E+00

     total cpu time spent up to now is       25.2 secs

     total energy              =     -59.84547779 Ry
     estimated scf accuracy    <       0.00104255 Ry

     iteration # 25     ecut=    55.00 Ry     beta= 0.70
     Davidson diagonalization with overlap
     ethr =  3.16E-06,  avg # of iterations =  2.8

     negative rho (up, down):  3.480E-03 0.000E+00

     total cpu time spent up to now is       25.8 secs

     total energy              =     -59.84566197 Ry
     estimated scf accuracy    <       0.00006125 Ry

     iteration # 26     ecut=    55.00 Ry     beta= 0.70
     Davidson diagonalization with overlap
     c_bands:  1 eigenvalues not converged
     c_bands:  1 eigenvalues not converged
     ethr =  1.91E-07,  avg # of iterations = 14.0

     negative rho (up, down):  3.457E-03 0.000E+00

     total cpu time spent up to now is       28.2 secs

     total energy              =     -59.84584934 Ry
     estimated scf accuracy    <       0.00020392 Ry

     iteration # 27     ecut=    55.00 Ry     beta= 0.70
     Davidson diagonalization with overlap
     c_bands:  1 eigenvalues not converged
     ethr =  1.91E-07,  avg # of iterations =  2.6

     negative rho (up, down):  3.498E-03 0.000E+00

     total cpu time spent up to now is       28.8 secs

     total energy              =     -59.84582008 Ry
     estimated scf accuracy    <       0.00009961 Ry

     iteration # 28     ecut=    55.00 Ry     beta= 0.70
     Davidson diagonalization with overlap
     ethr =  1.91E-07,  avg # of iterations =  2.5

     negative rho (up, down):  3.508E-03 0.000E+00

     total cpu time spent up to now is       29.4 secs

     total energy              =     -59.84581520 Ry
     estimated scf accuracy    <       0.00002679 Ry

     iteration # 29     ecut=    55.00 Ry     beta= 0.70
     Davidson diagonalization with overlap
     ethr =  8.37E-08,  avg # of iterations =  5.4

     negative rho (up, down):  3.502E-03 0.000E+00

     total cpu time spent up to now is       30.4 secs

     total energy              =     -59.84583192 Ry
     estimated scf accuracy    <       0.00000103 Ry

     iteration # 30     ecut=    55.00 Ry     beta= 0.70
     Davidson diagonalization with overlap
     c_bands:  1 eigenvalues not converged
     ethr =  3.23E-09,  avg # of iterations = 12.2

     negative rho (up, down):  3.501E-03 0.000E+00

     total cpu time spent up to now is       32.5 secs

     total energy              =     -59.84583481 Ry
     estimated scf accuracy    <       0.00000123 Ry

     iteration # 31     ecut=    55.00 Ry     beta= 0.70
     Davidson diagonalization with overlap
     ethr =  3.23E-09,  avg # of iterations =  1.8

     negative rho (up, down):  3.499E-03 0.000E+00

     total cpu time spent up to now is       33.1 secs

     total energy              =     -59.84583473 Ry
     estimated scf accuracy    <       0.00000026 Ry

     iteration # 32     ecut=    55.00 Ry     beta= 0.70
     Davidson diagonalization with overlap
     ethr =  7.99E-10,  avg # of iterations =  9.2

     negative rho (up, down):  3.500E-03 0.000E+00

     total cpu time spent up to now is       34.7 secs

     total energy              =     -59.84583504 Ry
     estimated scf accuracy    <       0.00000101 Ry

     iteration # 33     ecut=    55.00 Ry     beta= 0.70
     Davidson diagonalization with overlap
     ethr =  7.99E-10,  avg # of iterations =  2.0

     negative rho (up, down):  3.503E-03 0.000E+00

     total cpu time spent up to now is       35.3 secs

     total energy              =     -59.84583484 Ry
     estimated scf accuracy    <       0.00000041 Ry

     iteration # 34     ecut=    55.00 Ry     beta= 0.70
     Davidson diagonalization with overlap
     ethr =  7.99E-10,  avg # of iterations =  5.2

     negative rho (up, down):  3.501E-03 0.000E+00

     total cpu time spent up to now is       36.2 secs

     total energy              =     -59.84583499 Ry
     estimated scf accuracy    <       0.00000003 Ry

     iteration # 35     ecut=    55.00 Ry     beta= 0.70
     Davidson diagonalization with overlap
     ethr =  8.35E-11,  avg # of iterations =  6.4

     negative rho (up, down):  3.502E-03 0.000E+00

     total cpu time spent up to now is       37.2 secs

     End of self-consistent calculation

          k = 0.0000 0.0000 0.0000 (  3727 PWs)   bands (ev):

   -35.9901 -30.9008 -30.9008 -24.9579 -16.6625 -16.6625 -16.3947 -11.9655
   -11.9655  -8.7907  -6.6830  -5.7012  -0.6634  -0.6634   2.3807   4.3452
     7.5887   7.9503   9.0418  10.4728

          k = 0.0000 0.0962 0.0000 (  3733 PWs)   bands (ev):

   -36.1661 -31.1418 -30.7546 -24.8663 -16.6107 -16.2744 -16.0868 -12.4464
   -12.2493  -8.3055  -6.4408  -5.9051  -0.8559  -0.0806   2.8634   4.5195
     7.8061   8.1424   9.2227  10.0308

          k = 0.0000 0.1925 0.0000 (  3703 PWs)   bands (ev):

   -36.5943 -31.7350 -30.4234 -24.5608 -16.3761 -15.9431 -14.5843 -13.5614
   -12.8304  -7.1052  -6.5352  -5.7256  -1.0222   1.4274   3.4451   5.0013
     6.8386   8.4590   8.7105   9.7748

          k = 0.0000 0.2887 0.0000 (  3676 PWs)   bands (ev):

   -37.0943 -32.4333 -30.1025 -24.0052 -16.2087 -15.6055 -14.3285 -14.0308
   -11.8203  -7.3930  -5.9224  -4.6820  -1.0482   3.0552   3.3154   4.2439
     5.9527   8.6013   9.5420   9.7902

          k = 0.0000 0.3849 0.0000 (  3662 PWs)   bands (ev):

   -37.5301 -33.0411 -29.8937 -23.1959 -17.4100 -14.7974 -14.6086 -13.6555
    -9.1568  -8.4376  -5.2966  -3.9616  -1.2552   2.1358   3.5609   4.7864
     7.0977   7.3528   8.5509  10.2635

          k = 0.0000 0.4811 0.0000 (  3654 PWs)   bands (ev):

   -37.8196 -33.4427 -29.7947 -22.2051 -18.8558 -15.0300 -13.9186 -12.3614
    -9.6016  -6.5288  -5.0790  -4.9429  -0.7668   1.8393   3.8563   4.8545
     6.2554   6.5184   8.6112  11.2821

          k = 0.0000-0.5774 0.0000 (  3600 PWs)   bands (ev):

   -37.9195 -33.5816 -29.7678 -21.5169 -19.7033 -15.1778 -13.5102 -11.1292
   -10.6720  -5.8623  -5.2322  -4.8695  -0.4005   1.7649   4.0155   4.0568
     5.9024   6.1611   9.5300  11.9516

          k = 0.0833 0.1443 0.0000 (  3705 PWs)   bands (ev):

   -36.4620 -31.6145 -30.4553 -24.6672 -16.5081 -16.0448 -14.9983 -13.1671
   -12.7701  -7.4612  -6.2661  -5.9917  -1.0016   0.9364   3.3664   4.8459
     7.6309   8.2622   8.5162   9.6469

          k = 0.0833 0.2406 0.0000 (  3670 PWs)   bands (ev):

   -36.8984 -32.3684 -30.0017 -24.2437 -16.2570 -15.7100 -14.2241 -13.9936
   -12.4860  -6.9234  -6.2715  -5.1063  -1.0338   2.5312   3.3793   4.8851
     5.4320   8.7978   9.1095   9.2592

          k = 0.0833 0.3368 0.0000 (  3669 PWs)   bands (ev):

   -37.3250 -33.1248 -29.6064 -23.5690 -16.6859 -15.4686 -14.4493 -14.2484
   -10.0465  -7.7942  -5.4223  -3.9886  -1.2236   2.2522   3.6346   4.1285
     6.1574   7.8128  10.2400  10.4164

          k = 0.0833 0.4330 0.0000 (  3654 PWs)   bands (ev):

   -37.6471 -33.7072 -29.3564 -22.6534 -18.1077 -15.4220 -14.1569 -13.2746
    -9.1291  -7.0620  -4.9272  -4.2096  -1.2466   1.8637   3.4129   5.1784
     6.3030   6.9810   8.9724  10.8275

          k = 0.0833 0.5292 0.0000 (  3630 PWs)   bands (ev):

   -37.8173 -34.0191 -29.2449 -21.6732 -19.4011 -15.6216 -13.5587 -11.8861
   -10.3937  -5.6429  -4.6942  -4.6746  -0.6131   1.8667   3.5507   4.4105
     5.7732   6.7426   9.6019  10.9456

          k = 0.1667 0.2887 0.0000 (  3687 PWs)   bands (ev):

   -37.2169 -33.2956 -29.3284 -23.7150 -16.2935 -15.8281 -14.6704 -14.4073
   -10.2231  -7.4622  -5.4502  -4.0555  -1.1903   2.2253   3.6419   3.8519
     5.5875   8.0133  10.1911  10.2120

          k = 0.1667 0.3849 0.0000 (  3677 PWs)   bands (ev):

   -37.4483 -34.1640 -28.7175 -22.9374 -17.2537 -16.3435 -14.3625 -13.9636
    -8.8330  -6.9794  -4.7459  -3.4252  -1.8153   1.6339   3.3839   4.4902
     6.0796   7.3068  10.5889  11.6479

          k = 0.1667 0.4811 0.0000 (  3638 PWs)   bands (ev):

   -37.5658 -34.7731 -28.3255 -21.9481 -18.6970 -16.6039 -13.6352 -13.0957
    -9.9489  -5.3263  -4.2635  -3.7255  -1.1777   1.9894   3.1303   5.1062
     5.5269   7.1180  10.3299  10.5556

          k = 0.1667 0.5774 0.0000 (  3632 PWs)   bands (ev):

   -37.5975 -34.9938 -28.1946 -21.2206 -19.5893 -16.7029 -13.3360 -12.1138
   -11.0340  -5.4859  -4.0918  -3.3509   0.0225   2.1765   3.0885   4.0916
     5.2589   8.0234   9.2025  11.1494

          k = 0.2500 0.4330 0.0000 (  3641 PWs)   bands (ev):

   -37.4009 -35.1415 -27.8878 -22.0820 -17.9982 -17.4295 -13.7722 -13.5157
    -9.7683  -5.1697  -4.0275  -3.2258  -1.5853   1.9677   3.1502   4.6946
     6.0667   7.1559  10.8356  11.4485

          k = 0.2500 0.5292 0.0000 (  3658 PWs)   bands (ev):

   -37.2380 -35.8066 -27.4038 -21.0778 -19.2595 -17.7511 -13.2143 -12.8209
   -11.0654  -5.0024  -3.6348  -3.5211   1.1750   2.6033   3.0165   4.3808
     5.2455   8.0271   9.3805   9.8348

          k = 0.3333 0.5774 0.0000 (  3666 PWs)   bands (ev):

   -36.6472 -36.6472 -27.0318 -20.0883 -20.0880 -18.2334 -13.0745 -12.1242
   -12.1239  -4.4026  -4.4025  -3.2412   2.6503   3.4387   3.4390   5.0416
     5.0417   5.9731   8.4151  10.5182

     the Fermi energy is     5.2093 ev

!    total energy              =     -59.84583501 Ry
     estimated scf accuracy    <          5.0E-09 Ry
     smearing contrib. (-TS)   =      -0.00038350 Ry
     internal energy E=F+TS    =     -59.84545151 Ry

     The total energy is F=E-TS. E is the sum of the following terms:
     one-electron contribution =   -2245.76148698 Ry
     hartree contribution      =    1134.04543513 Ry
     xc contribution           =     -45.02402027 Ry
     ewald contribution        =    1096.89462060 Ry

     convergence has been achieved in  35 iterations

     negative rho (up, down):  3.502E-03 0.000E+00

     Forces acting on atoms (cartesian axes, Ry/au):

     atom    1 type  1   force =     0.00000000    0.00000000  -22.53444843
     atom    2 type  1   force =     0.00000000   -0.00000000   -2.71686984
     atom    3 type  1   force =     0.00000000    0.00000000   -2.19526390
     atom    4 type  1   force =     0.00000000   -0.00000000    3.58311463
     atom    5 type  1   force =     0.00000000   -0.00000000   -3.57846505
     atom    6 type  1   force =     0.00000000   -0.00000000    2.19326524
     atom    7 type  1   force =     0.00000000    0.00000000    2.71485260
     atom    8 type  1   force =     0.00000000   -0.00000000   22.53381475

     Total force =    32.643525     Total SCF correction =     0.000207


     Computing stress (Cartesian axis) and pressure


     negative rho (up, down):  3.502E-03 0.000E+00
          total   stress  (Ry/bohr**3)                   (kbar)     P=     8996.36
   0.02639129   0.00000000   0.00000000         3882.29        0.00        0.00
   0.00000000   0.02639129   0.00000000            0.00     3882.29        0.00
   0.00000000   0.00000000   0.13068554            0.00        0.00    19224.51


     Writing all to output data dir /run/media/rfa/SATA/Skripsi/DFT/Graphene-copy/tmp/gr-ab-4L.save/ :
     XML data file, charge density, pseudopotentials, collected wavefunctions

     init_run     :      0.65s CPU      0.68s WALL (       1 calls)
     electrons    :     67.31s CPU     36.52s WALL (       1 calls)
     forces       :      0.18s CPU      0.10s WALL (       1 calls)
     stress       :      0.62s CPU      0.35s WALL (       1 calls)

     Called by init_run:
     wfcinit      :      0.43s CPU      0.28s WALL (       1 calls)
     potinit      :      0.01s CPU      0.01s WALL (       1 calls)
     hinit0       :      0.19s CPU      0.36s WALL (       1 calls)

     Called by electrons:
     c_bands      :     59.91s CPU     32.35s WALL (      35 calls)
     sum_band     :      6.59s CPU      3.55s WALL (      35 calls)
     v_of_rho     :      0.29s CPU      0.25s WALL (      36 calls)
     newd         :      0.25s CPU      0.22s WALL (      36 calls)
     mix_rho      :      0.22s CPU      0.11s WALL (      35 calls)

     Called by c_bands:
     init_us_2    :      1.31s CPU      0.67s WALL (    1387 calls)
     cegterg      :     57.90s CPU     31.25s WALL (     665 calls)

     Called by *egterg:
     cdiaghg      :      5.30s CPU      2.70s WALL (    4573 calls)
     h_psi        :     41.94s CPU     23.07s WALL (    4592 calls)
     s_psi        :      1.64s CPU      0.85s WALL (    4592 calls)
     g_psi        :      0.36s CPU      0.19s WALL (    3908 calls)

     Called by h_psi:
     h_psi:calbec :      5.21s CPU      2.92s WALL (    4592 calls)
     vloc_psi     :     33.81s CPU     18.61s WALL (    4592 calls)
     add_vuspsi   :      2.44s CPU      1.27s WALL (    4592 calls)

     General routines
     calbec       :      6.29s CPU      3.48s WALL (    5580 calls)
     fft          :      0.28s CPU      0.43s WALL (     421 calls)
     ffts         :      0.02s CPU      0.01s WALL (      35 calls)
     fftw         :     33.08s CPU     18.28s WALL (  115328 calls)

     Parallel routines

     PWSCF        :   1m 8.86s CPU     38.04s WALL


   This run was terminated on:  15:16:14  16Apr2025            

=------------------------------------------------------------------------------=
   JOB DONE.
=------------------------------------------------------------------------------=
