
     Program PWSCF v.7.4.1 starts on 16Apr2025 at 15:16:15 

     This program is part of the open-source Quantum ESPRESSO suite
     for quantum simulation of materials; please cite
         "P. Giannozzi et al., J. Phys.:Condens. Matter 21 395502 (2009);
         "P. Giannozzi et al., J. Phys.:Condens. Matter 29 465901 (2017);
         "P. Giannozzi et al., J. Chem. Phys. 152 154105 (2020);
          URL http://www.quantum-espresso.org", 
     in publications or presentations arising from this work. More details at
     http://www.quantum-espresso.org/quote

     Parallel version (MPI), running on     7 processors

     MPI processes distributed on     1 nodes
     14733 MiB available memory on the printing compute node when the environment starts

     Waiting for input...
     Reading input from standard input

     Current dimensions of program PWSCF are:
     Max number of different atomic species (ntypx) = 10
     Max number of k-points (npk) =  40000
     Max angular momentum in pseudopotentials (lmaxx) =  4

     R & G space division:  proc/nbgrp/npool/nimage =       7
     Subspace diagonalization in iterative solution of the eigenvalue problem:
     a serial algorithm will be used


     Parallelization info
     --------------------
     sticks:   dense  smooth     PW     G-vecs:    dense   smooth      PW
     Min          51      51     15                 4783     4783     815
     Max          52      52     16                 4800     4800     838
     Sum         361     361    109                33523    33523    5791

     Using Slab Decomposition



     bravais-lattice index     =            4
     lattice parameter (alat)  =       4.6561  a.u.
     unit-cell volume          =     532.1899 (a.u.)^3
     number of atoms/cell      =            8
     number of atomic types    =            1
     number of electrons       =        32.00
     number of Kohn-Sham states=           20
     kinetic-energy cutoff     =      60.0000  Ry
     charge density cutoff     =     240.0000  Ry
     scf convergence threshold =      1.0E-08
     mixing beta               =       0.7000
     number of iterations used =            8  plain     mixing
     Exchange-correlation= PBE
                           (   1   4   3   4   0   0   0)

     celldm(1)=   4.656107  celldm(2)=   0.000000  celldm(3)=   6.087896
     celldm(4)=   0.000000  celldm(5)=   0.000000  celldm(6)=   0.000000

     crystal axes: (cart. coord. in units of alat)
               a(1) = (   1.000000   0.000000   0.000000 )  
               a(2) = (  -0.500000   0.866025   0.000000 )  
               a(3) = (   0.000000   0.000000   6.087896 )  

     reciprocal axes: (cart. coord. in units 2 pi/alat)
               b(1) = (  1.000000  0.577350 -0.000000 )  
               b(2) = (  0.000000  1.154701  0.000000 )  
               b(3) = (  0.000000 -0.000000  0.164260 )  


     PseudoPot. # 1 for C  read from file:
     /run/media/rfa/SATA/Skripsi/DFT/Graphene-copy/pseudo/C.pbe-n-rrkjus_psl.0.1.UPF
     MD5 check sum: 96a6a315177d77e6c95bf6fd3870f9e3
     Pseudo is Ultrasoft + core correction, Zval =  4.0
     Generated using &quot;atomic&quot; code by A. Dal Corso  v.6.3MaX
     Using radial grid of 1073 points,  4 beta functions with: 
                l(1) =   0
                l(2) =   0
                l(3) =   1
                l(4) =   1
     Q(r) pseudized with 0 coefficients 


     atomic species   valence    mass     pseudopotential
     C                 4.00    12.01070     C ( 1.00)

      6 Sym. Ops. (no inversion) found



   Cartesian axes

     site n.     atom                  positions (alat units)
         1        C      tau(   1) = (   0.0000000   0.5773503   3.0439478  )
         2        C      tau(   2) = (   0.5000000   0.2886751   3.0439478  )
         3        C      tau(   3) = (   0.0000000   0.0000000   3.2468777  )
         4        C      tau(   4) = (   0.0000000   0.5773503   3.2468777  )
         5        C      tau(   5) = (   0.0000000   0.5773503   3.4498075  )
         6        C      tau(   6) = (   0.5000000   0.2886751   3.4498075  )
         7        C      tau(   7) = (   0.0000000   0.0000000   3.6527374  )
         8        C      tau(   8) = (   0.0000000   0.5773503   3.6527374  )

     number of k points=    19  Marzari-Vanderbilt smearing, width (Ry)=  0.0200
                       cart. coord. in units 2pi/alat
        k(    1) = (   0.0000000   0.0000000   0.0000000), wk =   0.0138889
        k(    2) = (   0.0000000   0.0962250   0.0000000), wk =   0.0833333
        k(    3) = (   0.0000000   0.1924501   0.0000000), wk =   0.0833333
        k(    4) = (   0.0000000   0.2886751   0.0000000), wk =   0.0833333
        k(    5) = (   0.0000000   0.3849002   0.0000000), wk =   0.0833333
        k(    6) = (   0.0000000   0.4811252   0.0000000), wk =   0.0833333
        k(    7) = (   0.0000000  -0.5773503   0.0000000), wk =   0.0416667
        k(    8) = (   0.0833333   0.1443376   0.0000000), wk =   0.0833333
        k(    9) = (   0.0833333   0.2405626   0.0000000), wk =   0.1666667
        k(   10) = (   0.0833333   0.3367877   0.0000000), wk =   0.1666667
        k(   11) = (   0.0833333   0.4330127   0.0000000), wk =   0.1666667
        k(   12) = (   0.0833333   0.5292377   0.0000000), wk =   0.1666667
        k(   13) = (   0.1666667   0.2886751   0.0000000), wk =   0.0833333
        k(   14) = (   0.1666667   0.3849002   0.0000000), wk =   0.1666667
        k(   15) = (   0.1666667   0.4811252   0.0000000), wk =   0.1666667
        k(   16) = (   0.1666667   0.5773503   0.0000000), wk =   0.0833333
        k(   17) = (   0.2500000   0.4330127   0.0000000), wk =   0.0833333
        k(   18) = (   0.2500000   0.5292377   0.0000000), wk =   0.1666667
        k(   19) = (   0.3333333   0.5773503   0.0000000), wk =   0.0277778

     Dense  grid:    33523 G-vectors     FFT dimensions: (  24,  24, 144)

     Estimated max dynamical RAM per process >      12.18 MB

     Estimated total dynamical RAM >      85.27 MB

     Check: negative core charge=   -0.000004

     Initial potential from superposition of free atoms

     starting charge      31.9997, renormalised to      32.0000

     negative rho (up, down):  1.392E-04 0.000E+00
     Starting wfcs are   32 randomized atomic wfcs

     total cpu time spent up to now is        1.1 secs

     per-process dynamical memory:    14.2 Mb

     Self-consistent Calculation

     iteration #  1     ecut=    60.00 Ry     beta= 0.70
     Davidson diagonalization with overlap
     ethr =  1.00E-02,  avg # of iterations = 10.5

     negative rho (up, down):  4.618E-03 0.000E+00

     total cpu time spent up to now is        3.1 secs

     total energy              =     -41.04261853 Ry
     estimated scf accuracy    <      38.98066112 Ry

     iteration #  2     ecut=    60.00 Ry     beta= 0.70
     Davidson diagonalization with overlap
     c_bands:  1 eigenvalues not converged
     c_bands:  2 eigenvalues not converged
     c_bands:  1 eigenvalues not converged
     c_bands:  1 eigenvalues not converged
     ethr =  1.00E-02,  avg # of iterations = 17.9

     total cpu time spent up to now is        6.0 secs

     total energy              =     -24.32966846 Ry
     estimated scf accuracy    <     139.22227078 Ry

     iteration #  3     ecut=    60.00 Ry     beta= 0.70
     Davidson diagonalization with overlap
     c_bands:  2 eigenvalues not converged
     c_bands:  2 eigenvalues not converged
     c_bands:  1 eigenvalues not converged
     c_bands:  1 eigenvalues not converged
     ethr =  1.00E-02,  avg # of iterations = 14.6

     total cpu time spent up to now is        8.5 secs

     total energy              =     -59.20631791 Ry
     estimated scf accuracy    <      10.01976945 Ry

     iteration #  4     ecut=    60.00 Ry     beta= 0.70
     Davidson diagonalization with overlap
     ethr =  1.00E-02,  avg # of iterations =  4.3

     total cpu time spent up to now is        9.3 secs

     total energy              =     -59.78159876 Ry
     estimated scf accuracy    <       2.12634119 Ry

     iteration #  5     ecut=    60.00 Ry     beta= 0.70
     Davidson diagonalization with overlap
     ethr =  6.64E-03,  avg # of iterations =  2.5

     total cpu time spent up to now is       10.0 secs

     total energy              =     -59.59222137 Ry
     estimated scf accuracy    <       1.36107717 Ry

     iteration #  6     ecut=    60.00 Ry     beta= 0.70
     Davidson diagonalization with overlap
     ethr =  4.25E-03,  avg # of iterations =  4.4

     total cpu time spent up to now is       10.9 secs

     total energy              =     -59.71402111 Ry
     estimated scf accuracy    <       1.26626848 Ry

     iteration #  7     ecut=    60.00 Ry     beta= 0.70
     Davidson diagonalization with overlap
     ethr =  3.96E-03,  avg # of iterations =  2.2

     total cpu time spent up to now is       11.5 secs

     total energy              =     -59.82157713 Ry
     estimated scf accuracy    <       0.50088276 Ry

     iteration #  8     ecut=    60.00 Ry     beta= 0.70
     Davidson diagonalization with overlap
     ethr =  1.57E-03,  avg # of iterations =  5.1

     total cpu time spent up to now is       12.5 secs

     total energy              =     -60.03108827 Ry
     estimated scf accuracy    <       0.43176633 Ry

     iteration #  9     ecut=    60.00 Ry     beta= 0.70
     Davidson diagonalization with overlap
     ethr =  1.35E-03,  avg # of iterations =  4.9

     total cpu time spent up to now is       13.4 secs

     total energy              =     -59.85184349 Ry
     estimated scf accuracy    <       0.60889001 Ry

     iteration # 10     ecut=    60.00 Ry     beta= 0.70
     Davidson diagonalization with overlap
     ethr =  1.35E-03,  avg # of iterations =  2.2

     negative rho (up, down):  3.974E-07 0.000E+00

     total cpu time spent up to now is       14.1 secs

     total energy              =     -59.79826604 Ry
     estimated scf accuracy    <       0.15436587 Ry

     iteration # 11     ecut=    60.00 Ry     beta= 0.70
     Davidson diagonalization with overlap
     c_bands:  1 eigenvalues not converged
     ethr =  4.82E-04,  avg # of iterations = 10.1

     negative rho (up, down):  3.613E-03 0.000E+00

     total cpu time spent up to now is       15.5 secs

     total energy              =     -60.12447352 Ry
     estimated scf accuracy    <       0.21159136 Ry

     iteration # 12     ecut=    60.00 Ry     beta= 0.70
     Davidson diagonalization with overlap
     c_bands:  3 eigenvalues not converged
     ethr =  4.82E-04,  avg # of iterations =  6.3

     negative rho (up, down):  2.982E-03 0.000E+00

     total cpu time spent up to now is       16.5 secs

     total energy              =     -60.12812341 Ry
     estimated scf accuracy    <       1.05132453 Ry

     iteration # 13     ecut=    60.00 Ry     beta= 0.70
     Davidson diagonalization with overlap
     c_bands:  1 eigenvalues not converged
     ethr =  4.82E-04,  avg # of iterations =  2.6

     negative rho (up, down):  1.823E-03 0.000E+00

     total cpu time spent up to now is       17.2 secs

     total energy              =     -60.11431008 Ry
     estimated scf accuracy    <       0.79681046 Ry

     iteration # 14     ecut=    60.00 Ry     beta= 0.70
     Davidson diagonalization with overlap
     ethr =  4.82E-04,  avg # of iterations =  1.1

     negative rho (up, down):  2.353E-02 0.000E+00

     total cpu time spent up to now is       17.8 secs

     total energy              =     -60.01791754 Ry
     estimated scf accuracy    <       0.73077311 Ry

     iteration # 15     ecut=    60.00 Ry     beta= 0.70
     Davidson diagonalization with overlap
     ethr =  4.82E-04,  avg # of iterations =  1.5

     negative rho (up, down):  3.406E-02 0.000E+00

     total cpu time spent up to now is       18.4 secs

     total energy              =     -59.91408903 Ry
     estimated scf accuracy    <       0.49443292 Ry

     iteration # 16     ecut=    60.00 Ry     beta= 0.70
     Davidson diagonalization with overlap
     ethr =  4.82E-04,  avg # of iterations =  3.9

     negative rho (up, down):  2.599E-02 0.000E+00

     total cpu time spent up to now is       19.1 secs

     total energy              =     -59.81751024 Ry
     estimated scf accuracy    <       0.24349527 Ry

     iteration # 17     ecut=    60.00 Ry     beta= 0.70
     Davidson diagonalization with overlap
     ethr =  4.82E-04,  avg # of iterations =  5.3

     negative rho (up, down):  1.756E-02 0.000E+00

     total cpu time spent up to now is       20.0 secs

     total energy              =     -59.85843763 Ry
     estimated scf accuracy    <       0.04187975 Ry

     iteration # 18     ecut=    60.00 Ry     beta= 0.70
     Davidson diagonalization with overlap
     c_bands:  1 eigenvalues not converged
     ethr =  1.31E-04,  avg # of iterations =  7.2

     negative rho (up, down):  2.302E-03 0.000E+00

     total cpu time spent up to now is       21.1 secs

     total energy              =     -59.86894502 Ry
     estimated scf accuracy    <       0.02645132 Ry

     iteration # 19     ecut=    60.00 Ry     beta= 0.70
     Davidson diagonalization with overlap
     c_bands:  1 eigenvalues not converged
     ethr =  8.27E-05,  avg # of iterations =  6.6

     negative rho (up, down):  2.295E-03 0.000E+00

     total cpu time spent up to now is       22.1 secs

     total energy              =     -59.87492246 Ry
     estimated scf accuracy    <       0.00246359 Ry

     iteration # 20     ecut=    60.00 Ry     beta= 0.70
     Davidson diagonalization with overlap
     c_bands:  1 eigenvalues not converged
     c_bands:  2 eigenvalues not converged
     c_bands:  1 eigenvalues not converged
     c_bands:  1 eigenvalues not converged
     c_bands:  1 eigenvalues not converged
     c_bands:  2 eigenvalues not converged
     c_bands:  1 eigenvalues not converged
     c_bands:  1 eigenvalues not converged
     c_bands:  1 eigenvalues not converged
     c_bands:  1 eigenvalues not converged
     c_bands:  1 eigenvalues not converged
     ethr =  7.70E-06,  avg # of iterations = 17.5

     negative rho (up, down):  2.846E-03 0.000E+00

     total cpu time spent up to now is       24.7 secs

     total energy              =     -59.88036425 Ry
     estimated scf accuracy    <       0.00060556 Ry

     iteration # 21     ecut=    60.00 Ry     beta= 0.70
     Davidson diagonalization with overlap
     c_bands:  2 eigenvalues not converged
     c_bands:  2 eigenvalues not converged
     c_bands:  1 eigenvalues not converged
     ethr =  1.89E-06,  avg # of iterations = 13.3

     negative rho (up, down):  2.807E-03 0.000E+00

     total cpu time spent up to now is       26.2 secs

     total energy              =     -59.88065206 Ry
     estimated scf accuracy    <       0.00016832 Ry

     iteration # 22     ecut=    60.00 Ry     beta= 0.70
     Davidson diagonalization with overlap
     c_bands:  1 eigenvalues not converged
     c_bands:  1 eigenvalues not converged
     ethr =  5.26E-07,  avg # of iterations =  6.6

     negative rho (up, down):  2.931E-03 0.000E+00

     total cpu time spent up to now is       27.3 secs

     total energy              =     -59.88098571 Ry
     estimated scf accuracy    <       0.00027863 Ry

     iteration # 23     ecut=    60.00 Ry     beta= 0.70
     Davidson diagonalization with overlap
     c_bands:  1 eigenvalues not converged
     ethr =  5.26E-07,  avg # of iterations =  7.5

     negative rho (up, down):  2.843E-03 0.000E+00

     total cpu time spent up to now is       28.6 secs

     total energy              =     -59.88093759 Ry
     estimated scf accuracy    <       0.00123667 Ry

     iteration # 24     ecut=    60.00 Ry     beta= 0.70
     Davidson diagonalization with overlap
     ethr =  5.26E-07,  avg # of iterations =  1.2

     negative rho (up, down):  2.799E-03 0.000E+00

     total cpu time spent up to now is       29.2 secs

     total energy              =     -59.88079667 Ry
     estimated scf accuracy    <       0.00086001 Ry

     iteration # 25     ecut=    60.00 Ry     beta= 0.70
     Davidson diagonalization with overlap
     ethr =  5.26E-07,  avg # of iterations =  1.4

     negative rho (up, down):  2.796E-03 0.000E+00

     total cpu time spent up to now is       29.8 secs

     total energy              =     -59.88080909 Ry
     estimated scf accuracy    <       0.00055377 Ry

     iteration # 26     ecut=    60.00 Ry     beta= 0.70
     Davidson diagonalization with overlap
     ethr =  5.26E-07,  avg # of iterations =  1.0

     negative rho (up, down):  2.928E-03 0.000E+00

     total cpu time spent up to now is       30.4 secs

     total energy              =     -59.88054694 Ry
     estimated scf accuracy    <       0.00056072 Ry

     iteration # 27     ecut=    60.00 Ry     beta= 0.70
     Davidson diagonalization with overlap
     ethr =  5.26E-07,  avg # of iterations =  5.4

     negative rho (up, down):  2.798E-03 0.000E+00

     total cpu time spent up to now is       31.4 secs

     total energy              =     -59.88062923 Ry
     estimated scf accuracy    <       0.00007183 Ry

     iteration # 28     ecut=    60.00 Ry     beta= 0.70
     Davidson diagonalization with overlap
     ethr =  2.24E-07,  avg # of iterations =  6.0

     negative rho (up, down):  2.787E-03 0.000E+00

     total cpu time spent up to now is       32.4 secs

     total energy              =     -59.88066998 Ry
     estimated scf accuracy    <       0.00000838 Ry

     iteration # 29     ecut=    60.00 Ry     beta= 0.70
     Davidson diagonalization with overlap
     ethr =  2.62E-08,  avg # of iterations =  8.8

     negative rho (up, down):  2.793E-03 0.000E+00

     total cpu time spent up to now is       34.0 secs

     total energy              =     -59.88068163 Ry
     estimated scf accuracy    <       0.00000530 Ry

     iteration # 30     ecut=    60.00 Ry     beta= 0.70
     Davidson diagonalization with overlap
     ethr =  1.66E-08,  avg # of iterations =  2.7

     negative rho (up, down):  2.791E-03 0.000E+00

     total cpu time spent up to now is       34.7 secs

     total energy              =     -59.88068257 Ry
     estimated scf accuracy    <       0.00000266 Ry

     iteration # 31     ecut=    60.00 Ry     beta= 0.70
     Davidson diagonalization with overlap
     ethr =  8.31E-09,  avg # of iterations =  5.1

     negative rho (up, down):  2.791E-03 0.000E+00

     total cpu time spent up to now is       35.6 secs

     total energy              =     -59.88068326 Ry
     estimated scf accuracy    <       0.00000346 Ry

     iteration # 32     ecut=    60.00 Ry     beta= 0.70
     Davidson diagonalization with overlap
     ethr =  8.31E-09,  avg # of iterations =  1.2

     negative rho (up, down):  2.791E-03 0.000E+00

     total cpu time spent up to now is       36.2 secs

     total energy              =     -59.88068332 Ry
     estimated scf accuracy    <       0.00000346 Ry

     iteration # 33     ecut=    60.00 Ry     beta= 0.70
     Davidson diagonalization with overlap
     ethr =  8.31E-09,  avg # of iterations =  1.0

     negative rho (up, down):  2.791E-03 0.000E+00

     total cpu time spent up to now is       36.8 secs

     total energy              =     -59.88068334 Ry
     estimated scf accuracy    <       0.00000335 Ry

     iteration # 34     ecut=    60.00 Ry     beta= 0.70
     Davidson diagonalization with overlap
     ethr =  8.31E-09,  avg # of iterations =  1.0

     negative rho (up, down):  2.782E-03 0.000E+00

     total cpu time spent up to now is       37.4 secs

     total energy              =     -59.88069048 Ry
     estimated scf accuracy    <       0.00000334 Ry

     iteration # 35     ecut=    60.00 Ry     beta= 0.70
     Davidson diagonalization with overlap
     ethr =  8.31E-09,  avg # of iterations = 15.1

     negative rho (up, down):  2.788E-03 0.000E+00

     total cpu time spent up to now is       40.2 secs

     total energy              =     -59.88067769 Ry
     estimated scf accuracy    <       0.00007449 Ry

     iteration # 36     ecut=    60.00 Ry     beta= 0.70
     Davidson diagonalization with overlap
     ethr =  8.31E-09,  avg # of iterations =  8.3

     negative rho (up, down):  2.795E-03 0.000E+00

     total cpu time spent up to now is       41.7 secs

     total energy              =     -59.88067994 Ry
     estimated scf accuracy    <       0.00000937 Ry

     iteration # 37     ecut=    60.00 Ry     beta= 0.70
     Davidson diagonalization with overlap
     ethr =  8.31E-09,  avg # of iterations =  6.3

     negative rho (up, down):  2.792E-03 0.000E+00

     total cpu time spent up to now is       42.8 secs

     total energy              =     -59.88068190 Ry
     estimated scf accuracy    <       0.00000029 Ry

     iteration # 38     ecut=    60.00 Ry     beta= 0.70
     Davidson diagonalization with overlap
     ethr =  9.12E-10,  avg # of iterations = 10.7

     negative rho (up, down):  2.793E-03 0.000E+00

     total cpu time spent up to now is       44.8 secs

     total energy              =     -59.88068272 Ry
     estimated scf accuracy    <       0.00000013 Ry

     iteration # 39     ecut=    60.00 Ry     beta= 0.70
     Davidson diagonalization with overlap
     ethr =  3.96E-10,  avg # of iterations =  4.3

     negative rho (up, down):  2.793E-03 0.000E+00

     total cpu time spent up to now is       45.6 secs

     total energy              =     -59.88068265 Ry
     estimated scf accuracy    <       0.00000010 Ry

     iteration # 40     ecut=    60.00 Ry     beta= 0.70
     Davidson diagonalization with overlap
     ethr =  3.20E-10,  avg # of iterations =  4.5

     negative rho (up, down):  2.793E-03 0.000E+00

     total cpu time spent up to now is       46.5 secs

     total energy              =     -59.88068269 Ry
     estimated scf accuracy    <       0.00000008 Ry

     iteration # 41     ecut=    60.00 Ry     beta= 0.70
     Davidson diagonalization with overlap
     ethr =  2.42E-10,  avg # of iterations =  1.5

     negative rho (up, down):  2.792E-03 0.000E+00

     total cpu time spent up to now is       47.1 secs

     End of self-consistent calculation

          k = 0.0000 0.0000 0.0000 (  4149 PWs)   bands (ev):

   -35.9927 -30.8812 -30.8812 -24.9839 -16.6671 -16.6671 -16.3932 -11.9641
   -11.9641  -8.7995  -6.7332  -5.6879  -0.6674  -0.6674   2.3883   4.2916
     7.6024   7.9553   9.0512  10.4766

          k = 0.0000 0.0962 0.0000 (  4170 PWs)   bands (ev):

   -36.1669 -31.1225 -30.7367 -24.8900 -16.6160 -16.2677 -16.0909 -12.4471
   -12.2465  -8.3120  -6.4845  -5.8869  -0.8569  -0.0843   2.8707   4.4699
     7.8199   8.1478   9.2327  10.0373

          k = 0.0000 0.1925 0.0000 (  4194 PWs)   bands (ev):

   -36.5920 -31.7172 -30.4118 -24.5848 -16.3838 -15.9379 -14.5868 -13.5713
   -12.8288  -7.1055  -6.5332  -5.7617  -1.0193   1.4242   3.4546   4.9566
     6.8443   8.4724   8.7140   9.7684

          k = 0.0000 0.2887 0.0000 (  4186 PWs)   bands (ev):

   -37.0901 -32.4174 -30.0966 -24.0290 -16.2298 -15.6015 -14.3294 -14.0295
   -11.8208  -7.3942  -5.9234  -4.7167  -1.0418   3.0658   3.3132   4.2502
     5.9152   8.5658   9.5554   9.8044

          k = 0.0000 0.3849 0.0000 (  4180 PWs)   bands (ev):

   -37.5239 -33.0257 -29.8924 -23.2128 -17.4356 -14.7940 -14.6078 -13.6491
    -9.1554  -8.4427  -5.3021  -3.9714  -1.2499   2.1400   3.5724   4.7858
     7.0635   7.3475   8.5464  10.2641

          k = 0.0000 0.4811 0.0000 (  4172 PWs)   bands (ev):

   -37.8121 -33.4277 -29.7963 -22.2162 -18.8866 -15.0287 -13.9081 -12.3595
    -9.6095  -6.5247  -5.0858  -4.9398  -0.7602   1.8343   3.8694   4.8526
     6.2496   6.5143   8.6034  11.2811

          k = 0.0000-0.5774 0.0000 (  4184 PWs)   bands (ev):

   -37.9129 -33.5673 -29.7707 -21.5179 -19.7505 -15.1765 -13.4927 -11.1381
   -10.6764  -5.8608  -5.2267  -4.8787  -0.3863   1.7468   4.0063   4.0715
     5.9067   6.1597   9.5240  11.9502

          k = 0.0833 0.1443 0.0000 (  4169 PWs)   bands (ev):

   -36.4605 -31.5958 -30.4418 -24.6913 -16.5149 -16.0384 -15.0010 -13.1762
   -12.7673  -7.4636  -6.2510  -6.0375  -0.9994   0.9324   3.3751   4.7989
     7.6393   8.2757   8.5219   9.6559

          k = 0.0833 0.2406 0.0000 (  4180 PWs)   bands (ev):

   -36.8953 -32.3522 -29.9930 -24.2688 -16.2703 -15.7046 -14.2314 -13.9966
   -12.4860  -6.9166  -6.2709  -5.1508  -1.0284   2.5253   3.3902   4.8873
     5.3997   8.7557   9.1223   9.2695

          k = 0.0833 0.3368 0.0000 (  4175 PWs)   bands (ev):

   -37.3196 -33.1103 -29.6023 -23.5885 -16.7106 -15.4692 -14.4481 -14.2430
   -10.0449  -7.7936  -5.4267  -4.0109  -1.2157   2.2564   3.6466   4.1226
     6.1376   7.7832  10.2411  10.5064

          k = 0.0833 0.4330 0.0000 (  4187 PWs)   bands (ev):

   -37.6402 -33.6938 -29.3558 -22.6676 -18.1349 -15.4269 -14.1477 -13.2688
    -9.1310  -7.0598  -4.9335  -4.2111  -1.2433   1.8618   3.4296   5.1690
     6.3009   6.9647   8.9646  10.8218

          k = 0.0833 0.5292 0.0000 (  4195 PWs)   bands (ev):

   -37.8102 -34.0066 -29.2461 -21.6799 -19.4430 -15.6279 -13.5451 -11.8865
   -10.3990  -5.6399  -4.7033  -4.6725  -0.6052   1.8524   3.5679   4.4054
     5.7713   6.7412   9.5974  10.9104

          k = 0.1667 0.2887 0.0000 (  4170 PWs)   bands (ev):

   -37.2119 -33.2808 -29.3224 -23.7324 -16.3149 -15.8250 -14.6745 -14.3992
   -10.2207  -7.4555  -5.4516  -4.0801  -1.1816   2.2294   3.6299   3.8680
     5.5708   7.9835  10.2042  10.2208

          k = 0.1667 0.3849 0.0000 (  4172 PWs)   bands (ev):

   -37.4419 -34.1508 -28.7149 -22.9515 -17.2726 -16.3563 -14.3590 -13.9520
    -8.8275  -6.9766  -4.7474  -3.4354  -1.8095   1.6347   3.4045   4.4704
     6.0688   7.2967  10.5846  11.6517

          k = 0.1667 0.4811 0.0000 (  4170 PWs)   bands (ev):

   -37.5584 -34.7616 -28.3255 -21.9594 -18.7232 -16.6239 -13.6235 -13.0906
    -9.9471  -5.3190  -4.2680  -3.7280  -1.1781   1.9839   3.1547   5.0972
     5.5108   7.1180  10.3007  10.5390

          k = 0.1667 0.5774 0.0000 (  4178 PWs)   bands (ev):

   -37.5897 -34.9829 -28.1954 -21.2216 -19.6308 -16.7258 -13.3203 -12.1126
   -11.0319  -5.4829  -4.0999  -3.3461   0.0232   2.1636   3.1144   4.0854
     5.2615   8.0217   9.1518  11.1191

          k = 0.2500 0.4330 0.0000 (  4156 PWs)   bands (ev):

   -37.3939 -35.1299 -27.8874 -22.0957 -17.9982 -17.4808 -13.7685 -13.5026
    -9.7643  -5.1607  -4.0306  -3.2327  -1.5880   1.9701   3.1758   4.6654
     6.0506   7.1569  10.7935  11.4456

          k = 0.2500 0.5292 0.0000 (  4161 PWs)   bands (ev):

   -37.2295 -35.7959 -27.4045 -21.0831 -19.2718 -17.7931 -13.1986 -12.8161
   -11.0607  -4.9976  -3.6317  -3.5229   1.1717   2.6081   3.0387   4.3794
     5.2396   7.9870   9.3759   9.7998

          k = 0.3333 0.5774 0.0000 (  4152 PWs)   bands (ev):

   -36.6373 -36.6373 -27.0326 -20.0886 -20.0885 -18.2874 -13.0572 -12.1187
   -12.1187  -4.4001  -4.4000  -3.2382   2.6772   3.4400   3.4401   5.0414
     5.0415   5.9747   8.3201  10.5168

     the Fermi energy is     5.1993 ev

!    total energy              =     -59.88068270 Ry
     estimated scf accuracy    <          8.2E-09 Ry
     smearing contrib. (-TS)   =      -0.00042378 Ry
     internal energy E=F+TS    =     -59.88025892 Ry

     The total energy is F=E-TS. E is the sum of the following terms:
     one-electron contribution =   -2245.82482697 Ry
     hartree contribution      =    1134.08064098 Ry
     xc contribution           =     -45.03069378 Ry
     ewald contribution        =    1096.89462085 Ry

     convergence has been achieved in  41 iterations

     negative rho (up, down):  2.792E-03 0.000E+00

     Forces acting on atoms (cartesian axes, Ry/au):

     atom    1 type  1   force =     0.00000000    0.00000000  -22.41945451
     atom    2 type  1   force =     0.00000000    0.00000000   -2.71773998
     atom    3 type  1   force =     0.00000000    0.00000000   -2.19628974
     atom    4 type  1   force =     0.00000000    0.00000000    3.66244423
     atom    5 type  1   force =     0.00000000    0.00000000   -3.65576517
     atom    6 type  1   force =     0.00000000    0.00000000    2.19343598
     atom    7 type  1   force =     0.00000000    0.00000000    2.71490187
     atom    8 type  1   force =     0.00000000    0.00000000   22.41846731

     Total force =    32.502144     Total SCF correction =     0.000090


     Computing stress (Cartesian axis) and pressure


     negative rho (up, down):  2.792E-03 0.000E+00
          total   stress  (Ry/bohr**3)                   (kbar)     P=     9004.07
   0.02651729  -0.00000000   0.00000000         3900.83       -0.00        0.00
  -0.00000000   0.02651729   0.00000000           -0.00     3900.83        0.00
   0.00000000   0.00000000   0.13059074            0.00        0.00    19210.56


     Writing all to output data dir /run/media/rfa/SATA/Skripsi/DFT/Graphene-copy/tmp/gr-ab-4L.save/ :
     XML data file, charge density, pseudopotentials, collected wavefunctions

     init_run     :      0.86s CPU      1.00s WALL (       1 calls)
     electrons    :     85.02s CPU     46.09s WALL (       1 calls)
     forces       :      0.21s CPU      0.12s WALL (       1 calls)
     stress       :      0.74s CPU      0.41s WALL (       1 calls)

     Called by init_run:
     wfcinit      :      0.52s CPU      0.33s WALL (       1 calls)
     potinit      :      0.01s CPU      0.01s WALL (       1 calls)
     hinit0       :      0.31s CPU      0.63s WALL (       1 calls)

     Called by electrons:
     c_bands      :     75.60s CPU     40.81s WALL (      41 calls)
     sum_band     :      8.39s CPU      4.46s WALL (      41 calls)
     v_of_rho     :      0.31s CPU      0.31s WALL (      42 calls)
     newd         :      0.34s CPU      0.30s WALL (      42 calls)
     mix_rho      :      0.32s CPU      0.17s WALL (      41 calls)

     Called by c_bands:
     init_us_2    :      1.79s CPU      0.91s WALL (    1615 calls)
     cegterg      :     72.97s CPU     39.38s WALL (     779 calls)

     Called by *egterg:
     cdiaghg      :      6.30s CPU      3.21s WALL (    5407 calls)
     h_psi        :     51.43s CPU     28.39s WALL (    5426 calls)
     s_psi        :      2.74s CPU      1.43s WALL (    5426 calls)
     g_psi        :      0.46s CPU      0.24s WALL (    4628 calls)

     Called by h_psi:
     h_psi:calbec :      6.93s CPU      3.82s WALL (    5426 calls)
     vloc_psi     :     40.24s CPU     22.33s WALL (    5426 calls)
     add_vuspsi   :      3.65s CPU      1.91s WALL (    5426 calls)

     General routines
     calbec       :      8.39s CPU      4.57s WALL (    6528 calls)
     fft          :      0.41s CPU      0.73s WALL (     487 calls)
     ffts         :      0.02s CPU      0.01s WALL (      41 calls)
     fftw         :     39.11s CPU     21.79s WALL (  133700 calls)

     Parallel routines

     PWSCF        :   1m26.94s CPU     48.09s WALL


   This run was terminated on:  15:17: 3  16Apr2025            

=------------------------------------------------------------------------------=
   JOB DONE.
=------------------------------------------------------------------------------=
