
     Program PWSCF v.7.4.1 starts on 16Apr2025 at 15:17: 4 

     This program is part of the open-source Quantum ESPRESSO suite
     for quantum simulation of materials; please cite
         "P. Giannozzi et al., J. Phys.:Condens. Matter 21 395502 (2009);
         "P. Giannozzi et al., J. Phys.:Condens. Matter 29 465901 (2017);
         "P. Giannozzi et al., J. Chem. Phys. 152 154105 (2020);
          URL http://www.quantum-espresso.org", 
     in publications or presentations arising from this work. More details at
     http://www.quantum-espresso.org/quote

     Parallel version (MPI), running on     7 processors

     MPI processes distributed on     1 nodes
     14723 MiB available memory on the printing compute node when the environment starts

     Waiting for input...
     Reading input from standard input

     Current dimensions of program PWSCF are:
     Max number of different atomic species (ntypx) = 10
     Max number of k-points (npk) =  40000
     Max angular momentum in pseudopotentials (lmaxx) =  4

     R & G space division:  proc/nbgrp/npool/nimage =       7
     Subspace diagonalization in iterative solution of the eigenvalue problem:
     a serial algorithm will be used


     Parallelization info
     --------------------
     sticks:   dense  smooth     PW     G-vecs:    dense   smooth      PW
     Min          54      54     17                 5366     5366     925
     Max          55      55     18                 5395     5395     942
     Sum         379     379    121                37615    37615    6525

     Using Slab Decomposition



     bravais-lattice index     =            4
     lattice parameter (alat)  =       4.6561  a.u.
     unit-cell volume          =     532.1899 (a.u.)^3
     number of atoms/cell      =            8
     number of atomic types    =            1
     number of electrons       =        32.00
     number of Kohn-Sham states=           20
     kinetic-energy cutoff     =      65.0000  Ry
     charge density cutoff     =     260.0000  Ry
     scf convergence threshold =      1.0E-08
     mixing beta               =       0.7000
     number of iterations used =            8  plain     mixing
     Exchange-correlation= PBE
                           (   1   4   3   4   0   0   0)

     celldm(1)=   4.656107  celldm(2)=   0.000000  celldm(3)=   6.087896
     celldm(4)=   0.000000  celldm(5)=   0.000000  celldm(6)=   0.000000

     crystal axes: (cart. coord. in units of alat)
               a(1) = (   1.000000   0.000000   0.000000 )  
               a(2) = (  -0.500000   0.866025   0.000000 )  
               a(3) = (   0.000000   0.000000   6.087896 )  

     reciprocal axes: (cart. coord. in units 2 pi/alat)
               b(1) = (  1.000000  0.577350 -0.000000 )  
               b(2) = (  0.000000  1.154701  0.000000 )  
               b(3) = (  0.000000 -0.000000  0.164260 )  


     PseudoPot. # 1 for C  read from file:
     /run/media/rfa/SATA/Skripsi/DFT/Graphene-copy/pseudo/C.pbe-n-rrkjus_psl.0.1.UPF
     MD5 check sum: 96a6a315177d77e6c95bf6fd3870f9e3
     Pseudo is Ultrasoft + core correction, Zval =  4.0
     Generated using &quot;atomic&quot; code by A. Dal Corso  v.6.3MaX
     Using radial grid of 1073 points,  4 beta functions with: 
                l(1) =   0
                l(2) =   0
                l(3) =   1
                l(4) =   1
     Q(r) pseudized with 0 coefficients 


     atomic species   valence    mass     pseudopotential
     C                 4.00    12.01070     C ( 1.00)

      6 Sym. Ops. (no inversion) found



   Cartesian axes

     site n.     atom                  positions (alat units)
         1        C      tau(   1) = (   0.0000000   0.5773503   3.0439478  )
         2        C      tau(   2) = (   0.5000000   0.2886751   3.0439478  )
         3        C      tau(   3) = (   0.0000000   0.0000000   3.2468777  )
         4        C      tau(   4) = (   0.0000000   0.5773503   3.2468777  )
         5        C      tau(   5) = (   0.0000000   0.5773503   3.4498075  )
         6        C      tau(   6) = (   0.5000000   0.2886751   3.4498075  )
         7        C      tau(   7) = (   0.0000000   0.0000000   3.6527374  )
         8        C      tau(   8) = (   0.0000000   0.5773503   3.6527374  )

     number of k points=    19  Marzari-Vanderbilt smearing, width (Ry)=  0.0200
                       cart. coord. in units 2pi/alat
        k(    1) = (   0.0000000   0.0000000   0.0000000), wk =   0.0138889
        k(    2) = (   0.0000000   0.0962250   0.0000000), wk =   0.0833333
        k(    3) = (   0.0000000   0.1924501   0.0000000), wk =   0.0833333
        k(    4) = (   0.0000000   0.2886751   0.0000000), wk =   0.0833333
        k(    5) = (   0.0000000   0.3849002   0.0000000), wk =   0.0833333
        k(    6) = (   0.0000000   0.4811252   0.0000000), wk =   0.0833333
        k(    7) = (   0.0000000  -0.5773503   0.0000000), wk =   0.0416667
        k(    8) = (   0.0833333   0.1443376   0.0000000), wk =   0.0833333
        k(    9) = (   0.0833333   0.2405626   0.0000000), wk =   0.1666667
        k(   10) = (   0.0833333   0.3367877   0.0000000), wk =   0.1666667
        k(   11) = (   0.0833333   0.4330127   0.0000000), wk =   0.1666667
        k(   12) = (   0.0833333   0.5292377   0.0000000), wk =   0.1666667
        k(   13) = (   0.1666667   0.2886751   0.0000000), wk =   0.0833333
        k(   14) = (   0.1666667   0.3849002   0.0000000), wk =   0.1666667
        k(   15) = (   0.1666667   0.4811252   0.0000000), wk =   0.1666667
        k(   16) = (   0.1666667   0.5773503   0.0000000), wk =   0.0833333
        k(   17) = (   0.2500000   0.4330127   0.0000000), wk =   0.0833333
        k(   18) = (   0.2500000   0.5292377   0.0000000), wk =   0.1666667
        k(   19) = (   0.3333333   0.5773503   0.0000000), wk =   0.0277778

     Dense  grid:    37615 G-vectors     FFT dimensions: (  24,  24, 150)

     Estimated max dynamical RAM per process >      13.61 MB

     Estimated total dynamical RAM >      95.25 MB

     Check: negative core charge=   -0.000006

     Initial potential from superposition of free atoms

     starting charge      31.9997, renormalised to      32.0000

     negative rho (up, down):  1.636E-05 0.000E+00
     Starting wfcs are   32 randomized atomic wfcs

     total cpu time spent up to now is        0.9 secs

     per-process dynamical memory:    15.1 Mb

     Self-consistent Calculation

     iteration #  1     ecut=    65.00 Ry     beta= 0.70
     Davidson diagonalization with overlap
     ethr =  1.00E-02,  avg # of iterations = 10.4

     negative rho (up, down):  1.648E-03 0.000E+00

     total cpu time spent up to now is        3.2 secs

     total energy              =     -40.96930345 Ry
     estimated scf accuracy    <      39.17121337 Ry

     iteration #  2     ecut=    65.00 Ry     beta= 0.70
     Davidson diagonalization with overlap
     c_bands:  1 eigenvalues not converged
     c_bands:  3 eigenvalues not converged
     ethr =  1.00E-02,  avg # of iterations = 17.1

     total cpu time spent up to now is        6.2 secs

     total energy              =     -24.78843261 Ry
     estimated scf accuracy    <     137.84550889 Ry

     iteration #  3     ecut=    65.00 Ry     beta= 0.70
     Davidson diagonalization with overlap
     c_bands:  2 eigenvalues not converged
     c_bands:  2 eigenvalues not converged
     c_bands:  1 eigenvalues not converged
     c_bands:  1 eigenvalues not converged
     ethr =  1.00E-02,  avg # of iterations = 14.6

     total cpu time spent up to now is        9.1 secs

     total energy              =     -59.24748587 Ry
     estimated scf accuracy    <       9.80773539 Ry

     iteration #  4     ecut=    65.00 Ry     beta= 0.70
     Davidson diagonalization with overlap
     ethr =  1.00E-02,  avg # of iterations =  4.7

     total cpu time spent up to now is        9.9 secs

     total energy              =     -59.73621633 Ry
     estimated scf accuracy    <       2.15321386 Ry

     iteration #  5     ecut=    65.00 Ry     beta= 0.70
     Davidson diagonalization with overlap
     ethr =  6.73E-03,  avg # of iterations =  2.8

     total cpu time spent up to now is       10.7 secs

     total energy              =     -59.50280776 Ry
     estimated scf accuracy    <       1.26700263 Ry

     iteration #  6     ecut=    65.00 Ry     beta= 0.70
     Davidson diagonalization with overlap
     ethr =  3.96E-03,  avg # of iterations =  4.5

     total cpu time spent up to now is       11.7 secs

     total energy              =     -59.82533546 Ry
     estimated scf accuracy    <       0.76357574 Ry

     iteration #  7     ecut=    65.00 Ry     beta= 0.70
     Davidson diagonalization with overlap
     ethr =  2.39E-03,  avg # of iterations =  4.2

     total cpu time spent up to now is       12.6 secs

     total energy              =     -59.99667101 Ry
     estimated scf accuracy    <       0.50123308 Ry

     iteration #  8     ecut=    65.00 Ry     beta= 0.70
     Davidson diagonalization with overlap
     ethr =  1.57E-03,  avg # of iterations =  2.7

     total cpu time spent up to now is       13.4 secs

     total energy              =     -59.87318318 Ry
     estimated scf accuracy    <       0.46227262 Ry

     iteration #  9     ecut=    65.00 Ry     beta= 0.70
     Davidson diagonalization with overlap
     ethr =  1.44E-03,  avg # of iterations =  2.3

     total cpu time spent up to now is       14.1 secs

     total energy              =     -59.76665416 Ry
     estimated scf accuracy    <       0.25284230 Ry

     iteration # 10     ecut=    65.00 Ry     beta= 0.70
     Davidson diagonalization with overlap
     c_bands:  1 eigenvalues not converged
     ethr =  7.90E-04,  avg # of iterations =  8.1

     total cpu time spent up to now is       15.3 secs

     total energy              =     -59.87821254 Ry
     estimated scf accuracy    <       0.02232760 Ry

     iteration # 11     ecut=    65.00 Ry     beta= 0.70
     Davidson diagonalization with overlap
     c_bands:  2 eigenvalues not converged
     c_bands:  3 eigenvalues not converged
     c_bands:  2 eigenvalues not converged
     c_bands:  1 eigenvalues not converged
     c_bands:  2 eigenvalues not converged
     c_bands:  2 eigenvalues not converged
     c_bands:  1 eigenvalues not converged
     c_bands:  2 eigenvalues not converged
     c_bands:  1 eigenvalues not converged
     c_bands:  1 eigenvalues not converged
     ethr =  6.98E-05,  avg # of iterations = 16.0

     negative rho (up, down):  7.011E-04 0.000E+00

     total cpu time spent up to now is       18.0 secs

     total energy              =     -59.91414111 Ry
     estimated scf accuracy    <       0.05924800 Ry

     iteration # 12     ecut=    65.00 Ry     beta= 0.70
     Davidson diagonalization with overlap
     c_bands:  1 eigenvalues not converged
     c_bands:  3 eigenvalues not converged
     c_bands:  3 eigenvalues not converged
     c_bands:  2 eigenvalues not converged
     c_bands:  2 eigenvalues not converged
     ethr =  6.98E-05,  avg # of iterations = 13.0

     negative rho (up, down):  9.959E-06 0.000E+00

     total cpu time spent up to now is       19.8 secs

     total energy              =     -59.88680087 Ry
     estimated scf accuracy    <       0.13241563 Ry

     iteration # 13     ecut=    65.00 Ry     beta= 0.70
     Davidson diagonalization with overlap
     c_bands:  1 eigenvalues not converged
     c_bands:  1 eigenvalues not converged
     ethr =  6.98E-05,  avg # of iterations =  8.0

     negative rho (up, down):  5.276E-04 0.000E+00

     total cpu time spent up to now is       21.0 secs

     total energy              =     -59.90092925 Ry
     estimated scf accuracy    <       0.02466844 Ry

     iteration # 14     ecut=    65.00 Ry     beta= 0.70
     Davidson diagonalization with overlap
     ethr =  6.98E-05,  avg # of iterations =  1.3

     negative rho (up, down):  9.793E-04 0.000E+00

     total cpu time spent up to now is       21.7 secs

     total energy              =     -59.90092908 Ry
     estimated scf accuracy    <       0.02354173 Ry

     iteration # 15     ecut=    65.00 Ry     beta= 0.70
     Davidson diagonalization with overlap
     ethr =  6.98E-05,  avg # of iterations =  1.0

     negative rho (up, down):  1.548E-03 0.000E+00

     total cpu time spent up to now is       22.4 secs

     total energy              =     -59.89979328 Ry
     estimated scf accuracy    <       0.01992199 Ry

     iteration # 16     ecut=    65.00 Ry     beta= 0.70
     Davidson diagonalization with overlap
     ethr =  6.23E-05,  avg # of iterations =  1.1

     negative rho (up, down):  1.831E-03 0.000E+00

     total cpu time spent up to now is       23.0 secs

     total energy              =     -59.89882565 Ry
     estimated scf accuracy    <       0.01496553 Ry

     iteration # 17     ecut=    65.00 Ry     beta= 0.70
     Davidson diagonalization with overlap
     ethr =  4.68E-05,  avg # of iterations =  1.1

     negative rho (up, down):  1.811E-03 0.000E+00

     total cpu time spent up to now is       23.7 secs

     total energy              =     -59.89913092 Ry
     estimated scf accuracy    <       0.01101221 Ry

     iteration # 18     ecut=    65.00 Ry     beta= 0.70
     Davidson diagonalization with overlap
     ethr =  3.44E-05,  avg # of iterations =  1.1

     negative rho (up, down):  1.163E-03 0.000E+00

     total cpu time spent up to now is       24.3 secs

     total energy              =     -59.89899553 Ry
     estimated scf accuracy    <       0.01064955 Ry

     iteration # 19     ecut=    65.00 Ry     beta= 0.70
     Davidson diagonalization with overlap
     ethr =  3.33E-05,  avg # of iterations =  1.0

     negative rho (up, down):  1.267E-03 0.000E+00

     total cpu time spent up to now is       24.9 secs

     total energy              =     -59.89505960 Ry
     estimated scf accuracy    <       0.00965265 Ry

     iteration # 20     ecut=    65.00 Ry     beta= 0.70
     Davidson diagonalization with overlap
     ethr =  3.02E-05,  avg # of iterations =  5.1

     negative rho (up, down):  1.545E-03 0.000E+00

     total cpu time spent up to now is       25.8 secs

     total energy              =     -59.89643773 Ry
     estimated scf accuracy    <       0.00117399 Ry

     iteration # 21     ecut=    65.00 Ry     beta= 0.70
     Davidson diagonalization with overlap
     c_bands:  2 eigenvalues not converged
     c_bands:  2 eigenvalues not converged
     c_bands:  1 eigenvalues not converged
     c_bands:  1 eigenvalues not converged
     c_bands:  1 eigenvalues not converged
     c_bands:  1 eigenvalues not converged
     c_bands:  1 eigenvalues not converged
     c_bands:  1 eigenvalues not converged
     ethr =  3.67E-06,  avg # of iterations = 15.5

     negative rho (up, down):  1.307E-03 0.000E+00

     total cpu time spent up to now is       28.0 secs

     total energy              =     -59.89771599 Ry
     estimated scf accuracy    <       0.00043501 Ry

     iteration # 22     ecut=    65.00 Ry     beta= 0.70
     Davidson diagonalization with overlap
     c_bands:  1 eigenvalues not converged
     c_bands:  1 eigenvalues not converged
     c_bands:  1 eigenvalues not converged
     ethr =  1.36E-06,  avg # of iterations =  8.6

     negative rho (up, down):  1.273E-03 0.000E+00

     total cpu time spent up to now is       29.2 secs

     total energy              =     -59.89777587 Ry
     estimated scf accuracy    <       0.00020128 Ry

     iteration # 23     ecut=    65.00 Ry     beta= 0.70
     Davidson diagonalization with overlap
     c_bands:  1 eigenvalues not converged
     ethr =  6.29E-07,  avg # of iterations =  5.9

     negative rho (up, down):  1.277E-03 0.000E+00

     total cpu time spent up to now is       30.2 secs

     total energy              =     -59.89782560 Ry
     estimated scf accuracy    <       0.00008329 Ry

     iteration # 24     ecut=    65.00 Ry     beta= 0.70
     Davidson diagonalization with overlap
     ethr =  2.60E-07,  avg # of iterations =  5.6

     negative rho (up, down):  1.282E-03 0.000E+00

     total cpu time spent up to now is       31.3 secs

     total energy              =     -59.89784824 Ry
     estimated scf accuracy    <       0.00009457 Ry

     iteration # 25     ecut=    65.00 Ry     beta= 0.70
     Davidson diagonalization with overlap
     ethr =  2.60E-07,  avg # of iterations =  1.4

     negative rho (up, down):  1.287E-03 0.000E+00

     total cpu time spent up to now is       32.0 secs

     total energy              =     -59.89784303 Ry
     estimated scf accuracy    <       0.00007327 Ry

     iteration # 26     ecut=    65.00 Ry     beta= 0.70
     Davidson diagonalization with overlap
     ethr =  2.29E-07,  avg # of iterations =  1.0

     negative rho (up, down):  1.289E-03 0.000E+00

     total cpu time spent up to now is       32.6 secs

     total energy              =     -59.89782181 Ry
     estimated scf accuracy    <       0.00004668 Ry

     iteration # 27     ecut=    65.00 Ry     beta= 0.70
     Davidson diagonalization with overlap
     ethr =  1.46E-07,  avg # of iterations =  5.7

     negative rho (up, down):  1.283E-03 0.000E+00

     total cpu time spent up to now is       33.7 secs

     total energy              =     -59.89784344 Ry
     estimated scf accuracy    <       0.00000373 Ry

     iteration # 28     ecut=    65.00 Ry     beta= 0.70
     Davidson diagonalization with overlap
     ethr =  1.16E-08,  avg # of iterations = 10.7

     negative rho (up, down):  1.283E-03 0.000E+00

     total cpu time spent up to now is       35.9 secs

     total energy              =     -59.89785235 Ry
     estimated scf accuracy    <       0.00000269 Ry

     iteration # 29     ecut=    65.00 Ry     beta= 0.70
     Davidson diagonalization with overlap
     ethr =  8.41E-09,  avg # of iterations =  1.9

     negative rho (up, down):  1.286E-03 0.000E+00

     total cpu time spent up to now is       36.7 secs

     total energy              =     -59.89785191 Ry
     estimated scf accuracy    <       0.00000157 Ry

     iteration # 30     ecut=    65.00 Ry     beta= 0.70
     Davidson diagonalization with overlap
     ethr =  4.91E-09,  avg # of iterations =  2.8

     negative rho (up, down):  1.284E-03 0.000E+00

     total cpu time spent up to now is       37.4 secs

     total energy              =     -59.89785194 Ry
     estimated scf accuracy    <       0.00000049 Ry

     iteration # 31     ecut=    65.00 Ry     beta= 0.70
     Davidson diagonalization with overlap
     ethr =  1.52E-09,  avg # of iterations =  7.8

     negative rho (up, down):  1.281E-03 0.000E+00

     total cpu time spent up to now is       39.0 secs

     total energy              =     -59.89785227 Ry
     estimated scf accuracy    <       0.00000046 Ry

     iteration # 32     ecut=    65.00 Ry     beta= 0.70
     Davidson diagonalization with overlap
     ethr =  1.45E-09,  avg # of iterations =  2.0

     negative rho (up, down):  1.281E-03 0.000E+00

     total cpu time spent up to now is       39.7 secs

     total energy              =     -59.89785232 Ry
     estimated scf accuracy    <       0.00000004 Ry

     iteration # 33     ecut=    65.00 Ry     beta= 0.70
     Davidson diagonalization with overlap
     ethr =  1.38E-10,  avg # of iterations = 11.9

     negative rho (up, down):  1.281E-03 0.000E+00

     total cpu time spent up to now is       41.8 secs

     End of self-consistent calculation

          k = 0.0000 0.0000 0.0000 (  4651 PWs)   bands (ev):

   -35.9810 -30.8614 -30.8614 -24.9833 -16.6569 -16.6569 -16.3802 -11.9501
   -11.9501  -8.7915  -6.7467  -5.6707  -0.6570  -0.6570   2.4050   4.2792
     7.7539   8.0591   9.1802  10.6006

          k = 0.0000 0.0962 0.0000 (  4651 PWs)   bands (ev):

   -36.1545 -31.1023 -30.7170 -24.8869 -16.6056 -16.2549 -16.0802 -12.4353
   -12.2325  -8.3027  -6.4908  -5.8706  -0.8452  -0.0737   2.8873   4.4626
     7.9696   8.2506   9.3587  10.0586

          k = 0.0000 0.1925 0.0000 (  4667 PWs)   bands (ev):

   -36.5784 -31.6973 -30.3942 -24.5808 -16.3742 -15.9245 -14.5751 -13.5610
   -12.8150  -7.0936  -6.5211  -5.7617  -1.0058   1.4355   3.4722   4.9530
     6.8595   8.6160   8.8092   9.8625

          k = 0.0000 0.2887 0.0000 (  4686 PWs)   bands (ev):

   -37.0751 -32.3980 -30.0818 -24.0240 -16.2244 -15.5886 -14.3175 -14.0162
   -11.8083  -7.3827  -5.9107  -4.7153  -1.0271   3.0836   3.3249   4.2650
     5.9152   8.5694   9.6866   9.8998

          k = 0.0000 0.3849 0.0000 (  4690 PWs)   bands (ev):

   -37.5084 -33.0066 -29.8795 -23.2081 -17.4349 -14.7835 -14.5947 -13.6360
    -9.1424  -8.4349  -5.2933  -3.9638  -1.2360   2.1541   3.5888   4.7980
     7.0588   7.3581   8.5576  10.2769

          k = 0.0000 0.4811 0.0000 (  4700 PWs)   bands (ev):

   -37.7965 -33.4088 -29.7847 -22.2086 -18.8885 -15.0159 -13.8974 -12.3464
    -9.6021  -6.5108  -5.0774  -4.9265  -0.7460   1.8442   3.8866   4.8648
     6.2578   6.5251   8.6122  11.2931

          k = 0.0000-0.5774 0.0000 (  4724 PWs)   bands (ev):

   -37.8970 -33.5485 -29.7592 -21.5061 -19.7554 -15.1634 -13.4798 -11.1289
   -10.6653  -5.8479  -5.2117  -4.8696  -0.3688   1.7522   4.0176   4.0894
     5.9192   6.1713   9.5336  11.9624

          k = 0.0833 0.1443 0.0000 (  4666 PWs)   bands (ev):

   -36.4472 -31.5765 -30.4235 -24.6880 -16.5050 -16.0255 -14.9899 -13.1663
   -12.7541  -7.4526  -6.2353  -6.0427  -0.9864   0.9430   3.3923   4.7935
     7.6579   8.4208   8.6210   9.7883

          k = 0.0833 0.2406 0.0000 (  4682 PWs)   bands (ev):

   -36.8809 -32.3329 -29.9771 -24.2642 -16.2623 -15.6919 -14.2213 -13.9847
   -12.4737  -6.9032  -6.2582  -5.1523  -1.0141   2.5353   3.4084   4.9008
     5.4014   8.7556   9.2597   9.3610

          k = 0.0833 0.3368 0.0000 (  4711 PWs)   bands (ev):

   -37.3044 -33.0916 -29.5882 -23.5836 -16.7072 -15.4579 -14.4356 -14.2305
   -10.0321  -7.7827  -5.4160  -4.0074  -1.2002   2.2709   3.6633   4.1325
     6.1419   7.7834  10.2920  10.5559

          k = 0.0833 0.4330 0.0000 (  4717 PWs)   bands (ev):

   -37.6245 -33.6754 -29.3430 -22.6617 -18.1344 -15.4166 -14.1354 -13.2550
    -9.1212  -7.0465  -4.9247  -4.2000  -1.2303   1.8731   3.4480   5.1772
     6.3126   6.9687   8.9745  10.8327

          k = 0.0833 0.5292 0.0000 (  4726 PWs)   bands (ev):

   -37.7944 -33.9883 -29.2341 -21.6697 -19.4446 -15.6170 -13.5315 -11.8736
   -10.3884  -5.6260  -4.6933  -4.6587  -0.5897   1.8596   3.5869   4.4170
     5.7824   6.7527   9.6080  10.9103

          k = 0.1667 0.2887 0.0000 (  4706 PWs)   bands (ev):

   -37.1968 -33.2626 -29.3080 -23.7277 -16.3125 -15.8126 -14.6642 -14.3871
   -10.2079  -7.4432  -5.4403  -4.0788  -1.1658   2.2439   3.6365   3.8867
     5.5755   7.9826  10.3018  10.3364

          k = 0.1667 0.3849 0.0000 (  4727 PWs)   bands (ev):

   -37.4261 -34.1333 -28.7016 -22.9461 -17.2696 -16.3502 -14.3462 -13.9393
    -8.8143  -6.9639  -4.7370  -3.4285  -1.7947   1.6466   3.4247   4.4729
     6.0757   7.3036  10.5980  11.7109

          k = 0.1667 0.4811 0.0000 (  4736 PWs)   bands (ev):

   -37.5429 -34.7442 -28.3131 -21.9518 -18.7218 -16.6197 -13.6112 -13.0767
    -9.9348  -5.3044  -4.2579  -3.7170  -1.1655   1.9933   3.1763   5.1052
     5.5166   7.1298  10.2997  10.5450

          k = 0.1667 0.5774 0.0000 (  4744 PWs)   bands (ev):

   -37.5738 -34.9656 -28.1836 -21.2097 -19.6314 -16.7208 -13.3075 -12.0996
   -11.0183  -5.4693  -4.0886  -3.3325   0.0364   2.1713   3.1366   4.0958
     5.2741   8.0331   9.1464  11.1214

          k = 0.2500 0.4330 0.0000 (  4736 PWs)   bands (ev):

   -37.3781 -35.1130 -27.8750 -22.0883 -17.9859 -17.4865 -13.7550 -13.4889
    -9.7508  -5.1454  -4.0184  -3.2231  -1.5760   1.9826   3.1981   4.6661
     6.0568   7.1692  10.7893  11.4566

          k = 0.2500 0.5292 0.0000 (  4754 PWs)   bands (ev):

   -37.2136 -35.7795 -27.3928 -21.0729 -19.2646 -17.7980 -13.1843 -12.8022
   -11.0464  -4.9838  -3.6186  -3.5112   1.1831   2.6213   3.0599   4.3904
     5.2489   7.9814   9.3863   9.7974

          k = 0.3333 0.5774 0.0000 (  4740 PWs)   bands (ev):

   -36.6213 -36.6213 -27.0214 -20.0764 -20.0764 -18.3008 -13.0443 -12.1044
   -12.1044  -4.3872  -4.3872  -3.2250   2.6991   3.4521   3.4521   5.0529
     5.0529   5.9898   8.2878  10.5284

     the Fermi energy is     5.2076 ev

!    total energy              =     -59.89785240 Ry
     estimated scf accuracy    <          3.0E-09 Ry
     smearing contrib. (-TS)   =      -0.00044760 Ry
     internal energy E=F+TS    =     -59.89740480 Ry

     The total energy is F=E-TS. E is the sum of the following terms:
     one-electron contribution =   -2245.88324473 Ry
     hartree contribution      =    1134.12550365 Ry
     xc contribution           =     -45.03428461 Ry
     ewald contribution        =    1096.89462089 Ry

     convergence has been achieved in  33 iterations

     negative rho (up, down):  1.281E-03 0.000E+00

     Forces acting on atoms (cartesian axes, Ry/au):

     atom    1 type  1   force =     0.00000000    0.00000000  -22.36558444
     atom    2 type  1   force =     0.00000000    0.00000000   -2.71626858
     atom    3 type  1   force =     0.00000000    0.00000000   -2.19501851
     atom    4 type  1   force =     0.00000000    0.00000000    3.69160900
     atom    5 type  1   force =     0.00000000    0.00000000   -3.69160531
     atom    6 type  1   force =     0.00000000    0.00000000    2.19502667
     atom    7 type  1   force =     0.00000000    0.00000000    2.71627141
     atom    8 type  1   force =     0.00000000    0.00000000   22.36556976

     Total force =    32.435883     Total SCF correction =     0.000028


     Computing stress (Cartesian axis) and pressure


     negative rho (up, down):  1.281E-03 0.000E+00
          total   stress  (Ry/bohr**3)                   (kbar)     P=     9015.30
   0.02660599   0.00000000   0.00000000         3913.88        0.00        0.00
   0.00000000   0.02660599   0.00000000            0.00     3913.88        0.00
   0.00000000   0.00000000   0.13064235            0.00        0.00    19218.15


     Writing all to output data dir /run/media/rfa/SATA/Skripsi/DFT/Graphene-copy/tmp/gr-ab-4L.save/ :
     XML data file, charge density, pseudopotentials, collected wavefunctions

     init_run     :      0.80s CPU      0.86s WALL (       1 calls)
     electrons    :     74.84s CPU     40.86s WALL (       1 calls)
     forces       :      0.27s CPU      0.15s WALL (       1 calls)
     stress       :      0.93s CPU      0.51s WALL (       1 calls)

     Called by init_run:
     wfcinit      :      0.52s CPU      0.34s WALL (       1 calls)
     potinit      :      0.01s CPU      0.01s WALL (       1 calls)
     hinit0       :      0.24s CPU      0.47s WALL (       1 calls)

     Called by electrons:
     c_bands      :     66.50s CPU     36.15s WALL (      33 calls)
     sum_band     :      7.46s CPU      3.99s WALL (      33 calls)
     v_of_rho     :      0.26s CPU      0.27s WALL (      34 calls)
     newd         :      0.31s CPU      0.26s WALL (      34 calls)
     mix_rho      :      0.27s CPU      0.15s WALL (      33 calls)

     Called by c_bands:
     init_us_2    :      1.82s CPU      0.93s WALL (    1311 calls)
     cegterg      :     64.00s CPU     34.79s WALL (     627 calls)

     Called by *egterg:
     cdiaghg      :      5.15s CPU      2.63s WALL (    4446 calls)
     h_psi        :     43.80s CPU     24.55s WALL (    4465 calls)
     s_psi        :      3.00s CPU      1.54s WALL (    4465 calls)
     g_psi        :      0.43s CPU      0.22s WALL (    3819 calls)

     Called by h_psi:
     h_psi:calbec :      5.85s CPU      3.48s WALL (    4465 calls)
     vloc_psi     :     33.55s CPU     18.77s WALL (    4465 calls)
     add_vuspsi   :      3.79s CPU      1.96s WALL (    4465 calls)

     General routines
     calbec       :      7.32s CPU      4.24s WALL (    5415 calls)
     fft          :      0.32s CPU      0.56s WALL (     399 calls)
     ffts         :      0.02s CPU      0.01s WALL (      33 calls)
     fftw         :     32.80s CPU     18.40s WALL (  106818 calls)

     Parallel routines

     PWSCF        :   1m16.96s CPU     42.90s WALL


   This run was terminated on:  15:17:47  16Apr2025            

=------------------------------------------------------------------------------=
   JOB DONE.
=------------------------------------------------------------------------------=
