
     Program PWSCF v.7.4.1 starts on 16Apr2025 at 15:13:41 

     This program is part of the open-source Quantum ESPRESSO suite
     for quantum simulation of materials; please cite
         "P. Giannozzi et al., J. Phys.:Condens. Matter 21 395502 (2009);
         "P. Giannozzi et al., J. Phys.:Condens. Matter 29 465901 (2017);
         "P. Giannozzi et al., J. Chem. Phys. 152 154105 (2020);
          URL http://www.quantum-espresso.org", 
     in publications or presentations arising from this work. More details at
     http://www.quantum-espresso.org/quote

     Parallel version (MPI), running on     7 processors

     MPI processes distributed on     1 nodes
     14776 MiB available memory on the printing compute node when the environment starts

     Waiting for input...
     Reading input from standard input

     Current dimensions of program PWSCF are:
     Max number of different atomic species (ntypx) = 10
     Max number of k-points (npk) =  40000
     Max angular momentum in pseudopotentials (lmaxx) =  4

     R & G space division:  proc/nbgrp/npool/nimage =       7
     Subspace diagonalization in iterative solution of the eigenvalue problem:
     a serial algorithm will be used


     Parallelization info
     --------------------
     sticks:   dense  smooth     PW     G-vecs:    dense   smooth      PW
     Min          26      26      8                 1676     1676     330
     Max          27      27     10                 1681     1681     342
     Sum         187     187     61                11745    11745    2349

     Using Slab Decomposition



     bravais-lattice index     =            4
     lattice parameter (alat)  =       4.6561  a.u.
     unit-cell volume          =     532.1899 (a.u.)^3
     number of atoms/cell      =            8
     number of atomic types    =            1
     number of electrons       =        32.00
     number of Kohn-Sham states=           20
     kinetic-energy cutoff     =      30.0000  Ry
     charge density cutoff     =     120.0000  Ry
     scf convergence threshold =      1.0E-08
     mixing beta               =       0.7000
     number of iterations used =            8  plain     mixing
     Exchange-correlation= PBE
                           (   1   4   3   4   0   0   0)

     celldm(1)=   4.656107  celldm(2)=   0.000000  celldm(3)=   6.087896
     celldm(4)=   0.000000  celldm(5)=   0.000000  celldm(6)=   0.000000

     crystal axes: (cart. coord. in units of alat)
               a(1) = (   1.000000   0.000000   0.000000 )  
               a(2) = (  -0.500000   0.866025   0.000000 )  
               a(3) = (   0.000000   0.000000   6.087896 )  

     reciprocal axes: (cart. coord. in units 2 pi/alat)
               b(1) = (  1.000000  0.577350 -0.000000 )  
               b(2) = (  0.000000  1.154701  0.000000 )  
               b(3) = (  0.000000 -0.000000  0.164260 )  


     PseudoPot. # 1 for C  read from file:
     /run/media/rfa/SATA/Skripsi/DFT/Graphene-copy/pseudo/C.pbe-n-rrkjus_psl.0.1.UPF
     MD5 check sum: 96a6a315177d77e6c95bf6fd3870f9e3
     Pseudo is Ultrasoft + core correction, Zval =  4.0
     Generated using &quot;atomic&quot; code by A. Dal Corso  v.6.3MaX
     Using radial grid of 1073 points,  4 beta functions with: 
                l(1) =   0
                l(2) =   0
                l(3) =   1
                l(4) =   1
     Q(r) pseudized with 0 coefficients 


     atomic species   valence    mass     pseudopotential
     C                 4.00    12.01070     C ( 1.00)

      6 Sym. Ops. (no inversion) found



   Cartesian axes

     site n.     atom                  positions (alat units)
         1        C      tau(   1) = (   0.0000000   0.5773503   3.0439478  )
         2        C      tau(   2) = (   0.5000000   0.2886751   3.0439478  )
         3        C      tau(   3) = (   0.0000000   0.0000000   3.2468777  )
         4        C      tau(   4) = (   0.0000000   0.5773503   3.2468777  )
         5        C      tau(   5) = (   0.0000000   0.5773503   3.4498075  )
         6        C      tau(   6) = (   0.5000000   0.2886751   3.4498075  )
         7        C      tau(   7) = (   0.0000000   0.0000000   3.6527374  )
         8        C      tau(   8) = (   0.0000000   0.5773503   3.6527374  )

     number of k points=    19  Marzari-Vanderbilt smearing, width (Ry)=  0.0200
                       cart. coord. in units 2pi/alat
        k(    1) = (   0.0000000   0.0000000   0.0000000), wk =   0.0138889
        k(    2) = (   0.0000000   0.0962250   0.0000000), wk =   0.0833333
        k(    3) = (   0.0000000   0.1924501   0.0000000), wk =   0.0833333
        k(    4) = (   0.0000000   0.2886751   0.0000000), wk =   0.0833333
        k(    5) = (   0.0000000   0.3849002   0.0000000), wk =   0.0833333
        k(    6) = (   0.0000000   0.4811252   0.0000000), wk =   0.0833333
        k(    7) = (   0.0000000  -0.5773503   0.0000000), wk =   0.0416667
        k(    8) = (   0.0833333   0.1443376   0.0000000), wk =   0.0833333
        k(    9) = (   0.0833333   0.2405626   0.0000000), wk =   0.1666667
        k(   10) = (   0.0833333   0.3367877   0.0000000), wk =   0.1666667
        k(   11) = (   0.0833333   0.4330127   0.0000000), wk =   0.1666667
        k(   12) = (   0.0833333   0.5292377   0.0000000), wk =   0.1666667
        k(   13) = (   0.1666667   0.2886751   0.0000000), wk =   0.0833333
        k(   14) = (   0.1666667   0.3849002   0.0000000), wk =   0.1666667
        k(   15) = (   0.1666667   0.4811252   0.0000000), wk =   0.1666667
        k(   16) = (   0.1666667   0.5773503   0.0000000), wk =   0.0833333
        k(   17) = (   0.2500000   0.4330127   0.0000000), wk =   0.0833333
        k(   18) = (   0.2500000   0.5292377   0.0000000), wk =   0.1666667
        k(   19) = (   0.3333333   0.5773503   0.0000000), wk =   0.0277778

     Dense  grid:    11745 G-vectors     FFT dimensions: (  18,  18, 100)

     Estimated max dynamical RAM per process >       4.46 MB

     Estimated total dynamical RAM >      31.24 MB

     Check: negative core charge=   -0.000021

     Initial potential from superposition of free atoms

     starting charge      31.9997, renormalised to      32.0000

     negative rho (up, down):  3.891E-03 0.000E+00
     Starting wfcs are   32 randomized atomic wfcs

     total cpu time spent up to now is        0.7 secs

     per-process dynamical memory:     9.8 Mb

     Self-consistent Calculation

     iteration #  1     ecut=    30.00 Ry     beta= 0.70
     Davidson diagonalization with overlap
     ethr =  1.00E-02,  avg # of iterations =  7.2

     negative rho (up, down):  4.910E-02 0.000E+00

     total cpu time spent up to now is        1.3 secs

     total energy              =     -45.72278738 Ry
     estimated scf accuracy    <      27.79741589 Ry

     iteration #  2     ecut=    30.00 Ry     beta= 0.70
     Davidson diagonalization with overlap
     ethr =  1.00E-02,  avg # of iterations = 14.8

     total cpu time spent up to now is        2.2 secs

     total energy              =     -19.08748086 Ry
     estimated scf accuracy    <     164.30469974 Ry

     iteration #  3     ecut=    30.00 Ry     beta= 0.70
     Davidson diagonalization with overlap
     c_bands:  1 eigenvalues not converged
     ethr =  1.00E-02,  avg # of iterations = 13.8

     total cpu time spent up to now is        3.0 secs

     total energy              =     -58.24510126 Ry
     estimated scf accuracy    <       7.06608424 Ry

     iteration #  4     ecut=    30.00 Ry     beta= 0.70
     Davidson diagonalization with overlap
     ethr =  1.00E-02,  avg # of iterations =  3.4

     negative rho (up, down):  1.702E-05 0.000E+00

     total cpu time spent up to now is        3.4 secs

     total energy              =     -58.81176180 Ry
     estimated scf accuracy    <       2.05286369 Ry

     iteration #  5     ecut=    30.00 Ry     beta= 0.70
     Davidson diagonalization with overlap
     ethr =  6.42E-03,  avg # of iterations =  1.6

     negative rho (up, down):  7.197E-05 0.000E+00

     total cpu time spent up to now is        3.6 secs

     total energy              =     -58.41226820 Ry
     estimated scf accuracy    <       1.53147540 Ry

     iteration #  6     ecut=    30.00 Ry     beta= 0.70
     Davidson diagonalization with overlap
     ethr =  4.79E-03,  avg # of iterations =  1.2

     negative rho (up, down):  2.234E-04 0.000E+00

     total cpu time spent up to now is        3.8 secs

     total energy              =     -58.30706271 Ry
     estimated scf accuracy    <       0.83191394 Ry

     iteration #  7     ecut=    30.00 Ry     beta= 0.70
     Davidson diagonalization with overlap
     ethr =  2.60E-03,  avg # of iterations =  1.7

     negative rho (up, down):  2.623E-04 0.000E+00

     total cpu time spent up to now is        4.1 secs

     total energy              =     -58.31997521 Ry
     estimated scf accuracy    <       0.58390758 Ry

     iteration #  8     ecut=    30.00 Ry     beta= 0.70
     Davidson diagonalization with overlap
     ethr =  1.82E-03,  avg # of iterations =  2.0

     negative rho (up, down):  6.242E-05 0.000E+00

     total cpu time spent up to now is        4.4 secs

     total energy              =     -58.58974641 Ry
     estimated scf accuracy    <       0.52021676 Ry

     iteration #  9     ecut=    30.00 Ry     beta= 0.70
     Davidson diagonalization with overlap
     ethr =  1.63E-03,  avg # of iterations =  1.4

     negative rho (up, down):  2.992E-03 0.000E+00

     total cpu time spent up to now is        4.6 secs

     total energy              =     -58.06281851 Ry
     estimated scf accuracy    <       0.82278110 Ry

     iteration # 10     ecut=    30.00 Ry     beta= 0.70
     Davidson diagonalization with overlap
     ethr =  1.63E-03,  avg # of iterations =  3.5

     negative rho (up, down):  6.597E-03 0.000E+00

     total cpu time spent up to now is        4.9 secs

     total energy              =     -58.07050356 Ry
     estimated scf accuracy    <       0.13338799 Ry

     iteration # 11     ecut=    30.00 Ry     beta= 0.70
     Davidson diagonalization with overlap
     ethr =  4.17E-04,  avg # of iterations =  7.2

     negative rho (up, down):  5.422E-02 0.000E+00

     total cpu time spent up to now is        5.3 secs

     total energy              =     -58.03938029 Ry
     estimated scf accuracy    <       0.06098096 Ry

     iteration # 12     ecut=    30.00 Ry     beta= 0.70
     Davidson diagonalization with overlap
     ethr =  1.91E-04,  avg # of iterations = 12.2

     negative rho (up, down):  1.264E-02 0.000E+00

     total cpu time spent up to now is        5.9 secs

     total energy              =     -57.86008011 Ry
     estimated scf accuracy    <       0.88996943 Ry

     iteration # 13     ecut=    30.00 Ry     beta= 0.70
     Davidson diagonalization with overlap
     c_bands:  1 eigenvalues not converged
     c_bands:  3 eigenvalues not converged
     c_bands:  2 eigenvalues not converged
     c_bands:  1 eigenvalues not converged
     ethr =  1.91E-04,  avg # of iterations = 11.2

     negative rho (up, down):  7.167E-02 0.000E+00

     total cpu time spent up to now is        6.4 secs

     total energy              =     -58.06134196 Ry
     estimated scf accuracy    <       0.05881794 Ry

     iteration # 14     ecut=    30.00 Ry     beta= 0.70
     Davidson diagonalization with overlap
     c_bands:  1 eigenvalues not converged
     ethr =  1.84E-04,  avg # of iterations =  9.7

     negative rho (up, down):  6.827E-02 0.000E+00

     total cpu time spent up to now is        6.9 secs

     total energy              =     -58.10744680 Ry
     estimated scf accuracy    <       1.59302225 Ry

     iteration # 15     ecut=    30.00 Ry     beta= 0.70
     Davidson diagonalization with overlap
     ethr =  1.84E-04,  avg # of iterations =  1.1

     negative rho (up, down):  9.477E-02 0.000E+00

     total cpu time spent up to now is        7.1 secs

     total energy              =     -58.19833952 Ry
     estimated scf accuracy    <       1.13218503 Ry

     iteration # 16     ecut=    30.00 Ry     beta= 0.70
     Davidson diagonalization with overlap
     ethr =  1.84E-04,  avg # of iterations =  3.9

     negative rho (up, down):  8.074E-02 0.000E+00

     total cpu time spent up to now is        7.4 secs

     total energy              =     -58.11656465 Ry
     estimated scf accuracy    <       4.56960731 Ry

     iteration # 17     ecut=    30.00 Ry     beta= 0.70
     Davidson diagonalization with overlap
     ethr =  1.84E-04,  avg # of iterations =  1.3

     negative rho (up, down):  9.079E-02 0.000E+00

     total cpu time spent up to now is        7.6 secs

     total energy              =     -58.19251984 Ry
     estimated scf accuracy    <       1.85382148 Ry

     iteration # 18     ecut=    30.00 Ry     beta= 0.70
     Davidson diagonalization with overlap
     ethr =  1.84E-04,  avg # of iterations =  1.0

     negative rho (up, down):  2.945E-02 0.000E+00

     total cpu time spent up to now is        7.9 secs

     total energy              =     -57.67277125 Ry
     estimated scf accuracy    <       3.04045311 Ry

     iteration # 19     ecut=    30.00 Ry     beta= 0.70
     Davidson diagonalization with overlap
     c_bands:  1 eigenvalues not converged
     c_bands:  2 eigenvalues not converged
     c_bands:  1 eigenvalues not converged
     c_bands:  1 eigenvalues not converged
     c_bands:  1 eigenvalues not converged
     c_bands:  1 eigenvalues not converged
     ethr =  1.84E-04,  avg # of iterations = 12.3

     negative rho (up, down):  3.753E-02 0.000E+00

     total cpu time spent up to now is        8.4 secs

     total energy              =     -58.05539421 Ry
     estimated scf accuracy    <       0.00654650 Ry

     iteration # 20     ecut=    30.00 Ry     beta= 0.70
     Davidson diagonalization with overlap
     c_bands:  1 eigenvalues not converged
     c_bands:  3 eigenvalues not converged
     c_bands:  1 eigenvalues not converged
     c_bands:  1 eigenvalues not converged
     ethr =  2.05E-05,  avg # of iterations =  9.7

     negative rho (up, down):  4.463E-02 0.000E+00

     total cpu time spent up to now is        8.8 secs

     total energy              =     -58.05460726 Ry
     estimated scf accuracy    <       0.00265121 Ry

     iteration # 21     ecut=    30.00 Ry     beta= 0.70
     Davidson diagonalization with overlap
     c_bands:  1 eigenvalues not converged
     c_bands:  1 eigenvalues not converged
     ethr =  8.29E-06,  avg # of iterations =  8.6

     negative rho (up, down):  6.086E-02 0.000E+00

     total cpu time spent up to now is        9.2 secs

     total energy              =     -58.05563820 Ry
     estimated scf accuracy    <       0.00057956 Ry

     iteration # 22     ecut=    30.00 Ry     beta= 0.70
     Davidson diagonalization with overlap
     c_bands:  1 eigenvalues not converged
     c_bands:  1 eigenvalues not converged
     c_bands:  1 eigenvalues not converged
     c_bands:  1 eigenvalues not converged
     c_bands:  2 eigenvalues not converged
     c_bands:  1 eigenvalues not converged
     c_bands:  1 eigenvalues not converged
     c_bands:  1 eigenvalues not converged
     c_bands:  2 eigenvalues not converged
     ethr =  1.81E-06,  avg # of iterations = 15.5

     negative rho (up, down):  4.903E-02 0.000E+00

     total cpu time spent up to now is        9.9 secs

     total energy              =     -58.04362604 Ry
     estimated scf accuracy    <       0.09259768 Ry

     iteration # 23     ecut=    30.00 Ry     beta= 0.70
     Davidson diagonalization with overlap
     c_bands:  1 eigenvalues not converged
     c_bands:  1 eigenvalues not converged
     c_bands:  1 eigenvalues not converged
     c_bands:  1 eigenvalues not converged
     c_bands:  1 eigenvalues not converged
     c_bands:  2 eigenvalues not converged
     ethr =  1.81E-06,  avg # of iterations = 13.2

     negative rho (up, down):  5.559E-02 0.000E+00

     total cpu time spent up to now is       10.4 secs

     total energy              =     -58.05512612 Ry
     estimated scf accuracy    <       0.00017101 Ry

     iteration # 24     ecut=    30.00 Ry     beta= 0.70
     Davidson diagonalization with overlap
     c_bands:  1 eigenvalues not converged
     c_bands:  1 eigenvalues not converged
     c_bands:  1 eigenvalues not converged
     c_bands:  1 eigenvalues not converged
     ethr =  5.34E-07,  avg # of iterations = 10.2

     negative rho (up, down):  5.558E-02 0.000E+00

     total cpu time spent up to now is       10.9 secs

     total energy              =     -58.05548844 Ry
     estimated scf accuracy    <       0.00449229 Ry

     iteration # 25     ecut=    30.00 Ry     beta= 0.70
     Davidson diagonalization with overlap
     c_bands:  1 eigenvalues not converged
     ethr =  5.34E-07,  avg # of iterations =  6.4

     negative rho (up, down):  4.937E-02 0.000E+00

     total cpu time spent up to now is       11.2 secs

     total energy              =     -58.05335895 Ry
     estimated scf accuracy    <       0.00617865 Ry

     iteration # 26     ecut=    30.00 Ry     beta= 0.70
     Davidson diagonalization with overlap
     c_bands:  1 eigenvalues not converged
     c_bands:  1 eigenvalues not converged
     c_bands:  2 eigenvalues not converged
     ethr =  5.34E-07,  avg # of iterations = 10.2

     negative rho (up, down):  4.916E-02 0.000E+00

     total cpu time spent up to now is       11.7 secs

     total energy              =     -58.05466896 Ry
     estimated scf accuracy    <       0.00005209 Ry

     iteration # 27     ecut=    30.00 Ry     beta= 0.70
     Davidson diagonalization with overlap
     c_bands:  1 eigenvalues not converged
     c_bands:  1 eigenvalues not converged
     ethr =  1.63E-07,  avg # of iterations =  3.9

     negative rho (up, down):  4.865E-02 0.000E+00

     total cpu time spent up to now is       12.0 secs

     total energy              =     -58.05466033 Ry
     estimated scf accuracy    <       0.00004187 Ry

     iteration # 28     ecut=    30.00 Ry     beta= 0.70
     Davidson diagonalization with overlap
     c_bands:  1 eigenvalues not converged
     ethr =  1.31E-07,  avg # of iterations =  2.3

     negative rho (up, down):  4.877E-02 0.000E+00

     total cpu time spent up to now is       12.3 secs

     total energy              =     -58.05466446 Ry
     estimated scf accuracy    <       0.00002739 Ry

     iteration # 29     ecut=    30.00 Ry     beta= 0.70
     Davidson diagonalization with overlap
     ethr =  8.56E-08,  avg # of iterations =  1.1

     negative rho (up, down):  4.853E-02 0.000E+00

     total cpu time spent up to now is       12.5 secs

     total energy              =     -58.05465817 Ry
     estimated scf accuracy    <       0.00003081 Ry

     iteration # 30     ecut=    30.00 Ry     beta= 0.70
     Davidson diagonalization with overlap
     ethr =  8.56E-08,  avg # of iterations =  1.0

     negative rho (up, down):  4.844E-02 0.000E+00

     total cpu time spent up to now is       12.8 secs

     total energy              =     -58.05465653 Ry
     estimated scf accuracy    <       0.00002174 Ry

     iteration # 31     ecut=    30.00 Ry     beta= 0.70
     Davidson diagonalization with overlap
     ethr =  6.79E-08,  avg # of iterations =  1.0

     negative rho (up, down):  4.782E-02 0.000E+00

     total cpu time spent up to now is       13.0 secs

     total energy              =     -58.05464537 Ry
     estimated scf accuracy    <       0.00001907 Ry

     iteration # 32     ecut=    30.00 Ry     beta= 0.70
     Davidson diagonalization with overlap
     ethr =  5.96E-08,  avg # of iterations =  4.5

     negative rho (up, down):  4.748E-02 0.000E+00

     total cpu time spent up to now is       13.3 secs

     total energy              =     -58.05464343 Ry
     estimated scf accuracy    <       0.00000447 Ry

     iteration # 33     ecut=    30.00 Ry     beta= 0.70
     Davidson diagonalization with overlap
     c_bands:  1 eigenvalues not converged
     ethr =  1.40E-08,  avg # of iterations =  4.1

     negative rho (up, down):  4.740E-02 0.000E+00

     total cpu time spent up to now is       13.6 secs

     total energy              =     -58.05464353 Ry
     estimated scf accuracy    <       0.00000082 Ry

     iteration # 34     ecut=    30.00 Ry     beta= 0.70
     Davidson diagonalization with overlap
     ethr =  2.56E-09,  avg # of iterations =  5.3

     negative rho (up, down):  4.725E-02 0.000E+00

     total cpu time spent up to now is       14.0 secs

     total energy              =     -58.05464346 Ry
     estimated scf accuracy    <       0.00000025 Ry

     iteration # 35     ecut=    30.00 Ry     beta= 0.70
     Davidson diagonalization with overlap
     ethr =  7.91E-10,  avg # of iterations =  3.8

     negative rho (up, down):  4.725E-02 0.000E+00

     total cpu time spent up to now is       14.4 secs

     total energy              =     -58.05464351 Ry
     estimated scf accuracy    <       0.00000002 Ry

     iteration # 36     ecut=    30.00 Ry     beta= 0.70
     Davidson diagonalization with overlap
     ethr =  7.64E-11,  avg # of iterations =  5.2

     negative rho (up, down):  4.725E-02 0.000E+00

     total cpu time spent up to now is       14.8 secs

     total energy              =     -58.05464352 Ry
     estimated scf accuracy    <       0.00000001 Ry

     iteration # 37     ecut=    30.00 Ry     beta= 0.70
     Davidson diagonalization with overlap
     ethr =  3.49E-11,  avg # of iterations =  2.2

     negative rho (up, down):  4.725E-02 0.000E+00

     total cpu time spent up to now is       15.1 secs

     End of self-consistent calculation

          k = 0.0000 0.0000 0.0000 (  1435 PWs)   bands (ev):

   -35.7522 -32.1836 -32.1836 -23.2231 -16.2954 -16.2954 -15.5964 -12.3279
   -12.3279  -8.2903  -6.0026  -3.3191  -0.3560  -0.3560   2.5931   6.1849
     6.2825   7.8210   7.9782   9.9885

          k = 0.0000 0.0962 0.0000 (  1419 PWs)   bands (ev):

   -36.0665 -32.3813 -31.8266 -23.1772 -16.2165 -15.7698 -15.4730 -12.5837
   -12.5509  -7.8610  -6.0989  -3.1579  -0.6658   0.1976   3.0595   6.3552
     6.5036   7.8698   8.1679   9.6089

          k = 0.0000 0.1925 0.0000 (  1451 PWs)   bands (ev):

   -36.7658 -32.9150 -31.1593 -23.0646 -15.9453 -15.3027 -14.4267 -13.1797
   -13.0736  -6.7832  -6.5220  -2.8326  -1.0668   1.6364   3.4095   6.2736
     6.7951   7.1860   8.0519   8.8029

          k = 0.0000 0.2887 0.0000 (  1473 PWs)   bands (ev):

   -37.4740 -33.5394 -30.4558 -22.7487 -15.2880 -15.1474 -14.2505 -13.7875
   -11.7956  -7.0356  -5.5619  -2.3465  -1.2938   2.7222   3.4216   4.0150
     7.1290   8.2790   8.7927   9.8287

          k = 0.0000 0.3849 0.0000 (  1477 PWs)   bands (ev):

   -38.0401 -34.0861 -29.9275 -22.2491 -15.7525 -14.8327 -14.1589 -13.4514
    -9.2512  -7.6838  -4.7540  -2.9865  -1.1173   2.0559   3.3510   4.7653
     7.5561   8.7356   9.1923   9.8520

          k = 0.0000 0.4811 0.0000 (  1483 PWs)   bands (ev):

   -38.3985 -34.4547 -29.6379 -21.7184 -16.5639 -15.2453 -13.1902 -12.3894
    -8.8571  -6.8040  -5.3227  -3.5145  -1.0582   2.4597   3.6427   4.8475
     6.5321   6.7553   9.2040  11.8772

          k = 0.0000-0.5774 0.0000 (  1488 PWs)   bands (ev):

   -38.5214 -34.5892 -29.5345 -21.4682 -16.8502 -15.3885 -12.6908 -10.7028
   -10.3692  -5.9063  -5.6558  -3.3490  -1.1200   3.1115   3.8138   4.2267
     5.4754   6.2815   9.9570  11.8560

          k = 0.0833 0.1443 0.0000 (  1444 PWs)   bands (ev):

   -36.5623 -32.7928 -31.3148 -23.0944 -16.0937 -15.2983 -14.7920 -13.0252
   -12.9169  -7.1060  -6.3148  -2.8811  -0.9924   1.1997   3.4387   6.6005
     6.9022   7.2466   7.8924   8.5958

          k = 0.0833 0.2406 0.0000 (  1470 PWs)   bands (ev):

   -37.2071 -33.4541 -30.5344 -22.8959 -15.7121 -15.2211 -14.1313 -13.4984
   -12.4752  -6.8708  -5.9664  -2.4753  -1.2725   2.7990   3.1084   4.6156
     6.6590   7.8283   8.2993   9.3821

          k = 0.0833 0.3368 0.0000 (  1485 PWs)   bands (ev):

   -37.7872 -34.1387 -29.8268 -22.4947 -15.7240 -14.9270 -14.3229 -13.8089
   -10.1523  -7.4276  -4.9279  -2.4157  -1.4259   2.0732   3.2967   4.3941
     6.8350   9.1672   9.4655   9.8635

          k = 0.0833 0.4330 0.0000 (  1487 PWs)   bands (ev):

   -38.2035 -34.6578 -29.3393 -21.9396 -16.6430 -14.7511 -13.7191 -13.2397
    -8.7938  -7.1189  -4.6307  -3.3721  -1.1989   2.0752   2.9728   5.5192
     6.4713   7.7461   9.5698  10.9522

          k = 0.0833 0.5292 0.0000 (  1493 PWs)   bands (ev):

   -38.4166 -34.9391 -29.0994 -21.4746 -17.3032 -15.0032 -12.9247 -11.8908
   -10.0988  -5.8157  -4.8956  -3.3604  -1.0675   2.7691   3.1116   4.5794
     5.6669   6.8937   9.9410  11.9612

          k = 0.1667 0.2887 0.0000 (  1472 PWs)   bands (ev):

   -37.6504 -34.2670 -29.6381 -22.5889 -15.7714 -15.3326 -14.0436 -13.8543
   -10.3610  -7.3471  -4.9771  -2.0585  -1.7122   2.0120   3.4112   4.1627
     6.3593   8.9399   9.2656  10.4331

          k = 0.1667 0.3849 0.0000 (  1483 PWs)   bands (ev):

   -37.9800 -35.0497 -28.8107 -22.0963 -16.8320 -14.5889 -14.1791 -13.4119
    -8.9440  -6.9663  -4.1859  -2.6594  -1.7181   1.6117   2.7026   5.4147
     6.4249   8.3243  10.5082  10.7218

          k = 0.1667 0.4811 0.0000 (  1489 PWs)   bands (ev):

   -38.1633 -35.5970 -28.2646 -21.5075 -17.8195 -14.4467 -13.4225 -12.9245
   -10.0011  -5.6662  -3.8513  -2.9804  -1.1690   2.1304   2.3993   5.2349
     6.2907   7.1987  10.7982  12.2049

          k = 0.1667 0.5774 0.0000 (  1496 PWs)   bands (ev):

   -38.2197 -35.7956 -28.0867 -21.1771 -18.2909 -14.5543 -12.8657 -12.2180
   -11.2373  -5.5594  -3.5516  -3.0950  -0.1251   2.2295   2.7810   4.3587
     4.9152   8.2048  10.4279  12.7054

          k = 0.2500 0.4330 0.0000 (  1494 PWs)   bands (ev):

   -37.9928 -35.9219 -27.8539 -21.5501 -18.0254 -14.2103 -13.9935 -13.0260
    -9.9739  -5.5892  -3.5918  -2.4427  -1.4929   1.7088   2.3236   5.3744
     6.8791   7.2620  11.8763  12.2080

          k = 0.2500 0.5292 0.0000 (  1491 PWs)   bands (ev):

   -37.8745 -36.5377 -27.2859 -20.9131 -19.0140 -14.2499 -13.1169 -12.8371
   -11.4015  -5.1460  -3.6238  -2.7905   1.3264   1.6770   2.7928   4.3012
     5.3928   8.9477   9.7086  11.4853

          k = 0.3333 0.5774 0.0000 (  1482 PWs)   bands (ev):

   -37.3192 -37.3192 -26.8749 -20.0710 -20.0710 -14.1347 -12.7443 -12.4894
   -12.4893  -4.4089  -4.4089  -2.6467   1.4953   3.2740   3.2740   5.0771
     5.0771   6.1807  10.6859  10.6859

     the Fermi energy is     5.5967 ev

!    total energy              =     -58.05464352 Ry
     estimated scf accuracy    <          2.8E-09 Ry
     smearing contrib. (-TS)   =      -0.00021762 Ry
     internal energy E=F+TS    =     -58.05442589 Ry

     The total energy is F=E-TS. E is the sum of the following terms:
     one-electron contribution =   -2242.93816023 Ry
     hartree contribution      =    1132.71342459 Ry
     xc contribution           =     -44.72431117 Ry
     ewald contribution        =    1096.89462092 Ry

     convergence has been achieved in  37 iterations

     negative rho (up, down):  4.725E-02 0.000E+00

     Forces acting on atoms (cartesian axes, Ry/au):

     atom    1 type  1   force =     0.00000000    0.00000000  -25.77405179
     atom    2 type  1   force =     0.00000000   -0.00000000   -2.72146693
     atom    3 type  1   force =     0.00000000    0.00000000   -2.31736477
     atom    4 type  1   force =    -0.00000000    0.00000000   -0.46175120
     atom    5 type  1   force =    -0.00000000    0.00000000    0.46174505
     atom    6 type  1   force =     0.00000000    0.00000000    2.31737227
     atom    7 type  1   force =    -0.00000000   -0.00000000    2.72147573
     atom    8 type  1   force =     0.00000000    0.00000000   25.77404166

     Total force =    36.804655     Total SCF correction =     0.000207


     Computing stress (Cartesian axis) and pressure


     negative rho (up, down):  4.725E-02 0.000E+00
          total   stress  (Ry/bohr**3)                   (kbar)     P=     9095.64
   0.02304201   0.00000000  -0.00000000         3389.60        0.00       -0.00
   0.00000000   0.02304201  -0.00000000            0.00     3389.60       -0.00
   0.00000000   0.00000000   0.13940876            0.00        0.00    20507.74


     Writing all to output data dir /run/media/rfa/SATA/Skripsi/DFT/Graphene-copy/tmp/gr-ab-4L.save/ :
     XML data file, charge density, pseudopotentials, collected wavefunctions

     init_run     :      0.47s CPU      0.58s WALL (       1 calls)
     electrons    :     27.08s CPU     14.42s WALL (       1 calls)
     forces       :      0.05s CPU      0.03s WALL (       1 calls)
     stress       :      0.16s CPU      0.09s WALL (       1 calls)

     Called by init_run:
     wfcinit      :      0.27s CPU      0.14s WALL (       1 calls)
     potinit      :      0.01s CPU      0.01s WALL (       1 calls)
     hinit0       :      0.19s CPU      0.41s WALL (       1 calls)

     Called by electrons:
     c_bands      :     23.91s CPU     12.71s WALL (      37 calls)
     sum_band     :      2.69s CPU      1.44s WALL (      37 calls)
     v_of_rho     :      0.20s CPU      0.11s WALL (      38 calls)
     newd         :      0.14s CPU      0.08s WALL (      38 calls)
     mix_rho      :      0.08s CPU      0.04s WALL (      37 calls)

     Called by c_bands:
     init_us_2    :      0.37s CPU      0.19s WALL (    1463 calls)
     cegterg      :     23.00s CPU     12.16s WALL (     703 calls)

     Called by *egterg:
     cdiaghg      :      5.10s CPU      2.59s WALL (    4854 calls)
     h_psi        :     15.00s CPU      8.01s WALL (    4873 calls)
     s_psi        :      0.43s CPU      0.23s WALL (    4873 calls)
     g_psi        :      0.12s CPU      0.06s WALL (    4151 calls)

     Called by h_psi:
     h_psi:calbec :      1.39s CPU      0.76s WALL (    4873 calls)
     vloc_psi     :     12.67s CPU      6.74s WALL (    4873 calls)
     add_vuspsi   :      0.76s CPU      0.39s WALL (    4873 calls)

     General routines
     calbec       :      1.67s CPU      0.90s WALL (    5899 calls)
     fft          :      0.26s CPU      0.44s WALL (     443 calls)
     ffts         :      0.01s CPU      0.00s WALL (      37 calls)
     fftw         :     13.03s CPU      6.86s WALL (   97704 calls)

     Parallel routines

     PWSCF        :     27.85s CPU     15.36s WALL


   This run was terminated on:  15:13:57  16Apr2025            

=------------------------------------------------------------------------------=
   JOB DONE.
=------------------------------------------------------------------------------=
