
     Program PWSCF v.7.4.1 starts on 16Apr2025 at 15:15: 2 

     This program is part of the open-source Quantum ESPRESSO suite
     for quantum simulation of materials; please cite
         "P. Giannozzi et al., J. Phys.:Condens. Matter 21 395502 (2009);
         "P. Giannozzi et al., J. Phys.:Condens. Matter 29 465901 (2017);
         "P. Giannozzi et al., J. Chem. Phys. 152 154105 (2020);
          URL http://www.quantum-espresso.org", 
     in publications or presentations arising from this work. More details at
     http://www.quantum-espresso.org/quote

     Parallel version (MPI), running on     7 processors

     MPI processes distributed on     1 nodes
     14743 MiB available memory on the printing compute node when the environment starts

     Waiting for input...
     Reading input from standard input

     Current dimensions of program PWSCF are:
     Max number of different atomic species (ntypx) = 10
     Max number of k-points (npk) =  40000
     Max angular momentum in pseudopotentials (lmaxx) =  4

     R & G space division:  proc/nbgrp/npool/nimage =       7
     Subspace diagonalization in iterative solution of the eigenvalue problem:
     a serial algorithm will be used


     Parallelization info
     --------------------
     sticks:   dense  smooth     PW     G-vecs:    dense   smooth      PW
     Min          43      43     13                 3639     3639     639
     Max          43      43     13                 3649     3649     655
     Sum         301     301     91                25507    25507    4493

     Using Slab Decomposition



     bravais-lattice index     =            4
     lattice parameter (alat)  =       4.6561  a.u.
     unit-cell volume          =     532.1899 (a.u.)^3
     number of atoms/cell      =            8
     number of atomic types    =            1
     number of electrons       =        32.00
     number of Kohn-Sham states=           20
     kinetic-energy cutoff     =      50.0000  Ry
     charge density cutoff     =     200.0000  Ry
     scf convergence threshold =      1.0E-08
     mixing beta               =       0.7000
     number of iterations used =            8  plain     mixing
     Exchange-correlation= PBE
                           (   1   4   3   4   0   0   0)

     celldm(1)=   4.656107  celldm(2)=   0.000000  celldm(3)=   6.087896
     celldm(4)=   0.000000  celldm(5)=   0.000000  celldm(6)=   0.000000

     crystal axes: (cart. coord. in units of alat)
               a(1) = (   1.000000   0.000000   0.000000 )  
               a(2) = (  -0.500000   0.866025   0.000000 )  
               a(3) = (   0.000000   0.000000   6.087896 )  

     reciprocal axes: (cart. coord. in units 2 pi/alat)
               b(1) = (  1.000000  0.577350 -0.000000 )  
               b(2) = (  0.000000  1.154701  0.000000 )  
               b(3) = (  0.000000 -0.000000  0.164260 )  


     PseudoPot. # 1 for C  read from file:
     /run/media/rfa/SATA/Skripsi/DFT/Graphene-copy/pseudo/C.pbe-n-rrkjus_psl.0.1.UPF
     MD5 check sum: 96a6a315177d77e6c95bf6fd3870f9e3
     Pseudo is Ultrasoft + core correction, Zval =  4.0
     Generated using &quot;atomic&quot; code by A. Dal Corso  v.6.3MaX
     Using radial grid of 1073 points,  4 beta functions with: 
                l(1) =   0
                l(2) =   0
                l(3) =   1
                l(4) =   1
     Q(r) pseudized with 0 coefficients 


     atomic species   valence    mass     pseudopotential
     C                 4.00    12.01070     C ( 1.00)

      6 Sym. Ops. (no inversion) found



   Cartesian axes

     site n.     atom                  positions (alat units)
         1        C      tau(   1) = (   0.0000000   0.5773503   3.0439478  )
         2        C      tau(   2) = (   0.5000000   0.2886751   3.0439478  )
         3        C      tau(   3) = (   0.0000000   0.0000000   3.2468777  )
         4        C      tau(   4) = (   0.0000000   0.5773503   3.2468777  )
         5        C      tau(   5) = (   0.0000000   0.5773503   3.4498075  )
         6        C      tau(   6) = (   0.5000000   0.2886751   3.4498075  )
         7        C      tau(   7) = (   0.0000000   0.0000000   3.6527374  )
         8        C      tau(   8) = (   0.0000000   0.5773503   3.6527374  )

     number of k points=    19  Marzari-Vanderbilt smearing, width (Ry)=  0.0200
                       cart. coord. in units 2pi/alat
        k(    1) = (   0.0000000   0.0000000   0.0000000), wk =   0.0138889
        k(    2) = (   0.0000000   0.0962250   0.0000000), wk =   0.0833333
        k(    3) = (   0.0000000   0.1924501   0.0000000), wk =   0.0833333
        k(    4) = (   0.0000000   0.2886751   0.0000000), wk =   0.0833333
        k(    5) = (   0.0000000   0.3849002   0.0000000), wk =   0.0833333
        k(    6) = (   0.0000000   0.4811252   0.0000000), wk =   0.0833333
        k(    7) = (   0.0000000  -0.5773503   0.0000000), wk =   0.0416667
        k(    8) = (   0.0833333   0.1443376   0.0000000), wk =   0.0833333
        k(    9) = (   0.0833333   0.2405626   0.0000000), wk =   0.1666667
        k(   10) = (   0.0833333   0.3367877   0.0000000), wk =   0.1666667
        k(   11) = (   0.0833333   0.4330127   0.0000000), wk =   0.1666667
        k(   12) = (   0.0833333   0.5292377   0.0000000), wk =   0.1666667
        k(   13) = (   0.1666667   0.2886751   0.0000000), wk =   0.0833333
        k(   14) = (   0.1666667   0.3849002   0.0000000), wk =   0.1666667
        k(   15) = (   0.1666667   0.4811252   0.0000000), wk =   0.1666667
        k(   16) = (   0.1666667   0.5773503   0.0000000), wk =   0.0833333
        k(   17) = (   0.2500000   0.4330127   0.0000000), wk =   0.0833333
        k(   18) = (   0.2500000   0.5292377   0.0000000), wk =   0.1666667
        k(   19) = (   0.3333333   0.5773503   0.0000000), wk =   0.0277778

     Dense  grid:    25507 G-vectors     FFT dimensions: (  24,  24, 128)

     Estimated max dynamical RAM per process >       9.45 MB

     Estimated total dynamical RAM >      66.16 MB

     Check: negative core charge=   -0.000007

     Initial potential from superposition of free atoms

     starting charge      31.9997, renormalised to      32.0000

     negative rho (up, down):  4.835E-04 0.000E+00
     Starting wfcs are   32 randomized atomic wfcs

     total cpu time spent up to now is        0.7 secs

     per-process dynamical memory:    12.9 Mb

     Self-consistent Calculation

     iteration #  1     ecut=    50.00 Ry     beta= 0.70
     Davidson diagonalization with overlap
     ethr =  1.00E-02,  avg # of iterations = 10.2

     negative rho (up, down):  5.383E-03 0.000E+00

     total cpu time spent up to now is        2.3 secs

     total energy              =     -41.48132649 Ry
     estimated scf accuracy    <      38.08371397 Ry

     iteration #  2     ecut=    50.00 Ry     beta= 0.70
     Davidson diagonalization with overlap
     c_bands:  1 eigenvalues not converged
     c_bands:  1 eigenvalues not converged
     c_bands:  3 eigenvalues not converged
     c_bands:  2 eigenvalues not converged
     ethr =  1.00E-02,  avg # of iterations = 17.4

     total cpu time spent up to now is        4.4 secs

     total energy              =     -25.01968774 Ry
     estimated scf accuracy    <     135.33211815 Ry

     iteration #  3     ecut=    50.00 Ry     beta= 0.70
     Davidson diagonalization with overlap
     c_bands:  1 eigenvalues not converged
     c_bands:  3 eigenvalues not converged
     c_bands:  2 eigenvalues not converged
     ethr =  1.00E-02,  avg # of iterations = 14.6

     total cpu time spent up to now is        6.4 secs

     total energy              =     -59.27842572 Ry
     estimated scf accuracy    <       9.71983987 Ry

     iteration #  4     ecut=    50.00 Ry     beta= 0.70
     Davidson diagonalization with overlap
     ethr =  1.00E-02,  avg # of iterations =  4.8

     total cpu time spent up to now is        7.0 secs

     total energy              =     -59.81257827 Ry
     estimated scf accuracy    <       2.19015408 Ry

     iteration #  5     ecut=    50.00 Ry     beta= 0.70
     Davidson diagonalization with overlap
     ethr =  6.84E-03,  avg # of iterations =  2.5

     total cpu time spent up to now is        7.5 secs

     total energy              =     -59.75429344 Ry
     estimated scf accuracy    <       1.78404902 Ry

     iteration #  6     ecut=    50.00 Ry     beta= 0.70
     Davidson diagonalization with overlap
     ethr =  5.58E-03,  avg # of iterations =  1.7

     total cpu time spent up to now is        8.0 secs

     total energy              =     -59.53697529 Ry
     estimated scf accuracy    <       1.33148996 Ry

     iteration #  7     ecut=    50.00 Ry     beta= 0.70
     Davidson diagonalization with overlap
     ethr =  4.16E-03,  avg # of iterations =  2.2

     total cpu time spent up to now is        8.5 secs

     total energy              =     -59.54047187 Ry
     estimated scf accuracy    <       0.50761872 Ry

     iteration #  8     ecut=    50.00 Ry     beta= 0.70
     Davidson diagonalization with overlap
     ethr =  1.59E-03,  avg # of iterations =  6.7

     total cpu time spent up to now is        9.4 secs

     total energy              =     -59.83547445 Ry
     estimated scf accuracy    <       0.25444643 Ry

     iteration #  9     ecut=    50.00 Ry     beta= 0.70
     Davidson diagonalization with overlap
     ethr =  7.95E-04,  avg # of iterations =  7.3

     total cpu time spent up to now is       10.3 secs

     total energy              =     -59.82625144 Ry
     estimated scf accuracy    <       0.36729234 Ry

     iteration # 10     ecut=    50.00 Ry     beta= 0.70
     Davidson diagonalization with overlap
     ethr =  7.95E-04,  avg # of iterations =  1.8

     negative rho (up, down):  3.878E-06 0.000E+00

     total cpu time spent up to now is       10.8 secs

     total energy              =     -59.73365356 Ry
     estimated scf accuracy    <       0.17918979 Ry

     iteration # 11     ecut=    50.00 Ry     beta= 0.70
     Davidson diagonalization with overlap
     c_bands:  1 eigenvalues not converged
     c_bands:  1 eigenvalues not converged
     ethr =  5.60E-04,  avg # of iterations =  6.7

     negative rho (up, down):  1.517E-03 0.000E+00

     total cpu time spent up to now is       11.5 secs

     total energy              =     -59.76192485 Ry
     estimated scf accuracy    <       0.01452289 Ry

     iteration # 12     ecut=    50.00 Ry     beta= 0.70
     Davidson diagonalization with overlap
     c_bands:  2 eigenvalues not converged
     c_bands:  3 eigenvalues not converged
     c_bands:  1 eigenvalues not converged
     c_bands:  2 eigenvalues not converged
     c_bands:  2 eigenvalues not converged
     c_bands:  1 eigenvalues not converged
     c_bands:  2 eigenvalues not converged
     c_bands:  2 eigenvalues not converged
     c_bands:  2 eigenvalues not converged
     c_bands:  1 eigenvalues not converged
     ethr =  4.54E-05,  avg # of iterations = 17.3

     negative rho (up, down):  2.147E-03 0.000E+00

     total cpu time spent up to now is       13.3 secs

     total energy              =     -59.78926522 Ry
     estimated scf accuracy    <       0.03053759 Ry

     iteration # 13     ecut=    50.00 Ry     beta= 0.70
     Davidson diagonalization with overlap
     c_bands:  1 eigenvalues not converged
     ethr =  4.54E-05,  avg # of iterations =  7.5

     negative rho (up, down):  2.808E-03 0.000E+00

     total cpu time spent up to now is       14.1 secs

     total energy              =     -59.79588783 Ry
     estimated scf accuracy    <       0.04454347 Ry

     iteration # 14     ecut=    50.00 Ry     beta= 0.70
     Davidson diagonalization with overlap
     ethr =  4.54E-05,  avg # of iterations =  2.7

     negative rho (up, down):  2.248E-03 0.000E+00

     total cpu time spent up to now is       14.6 secs

     total energy              =     -59.76585548 Ry
     estimated scf accuracy    <       0.05807512 Ry

     iteration # 15     ecut=    50.00 Ry     beta= 0.70
     Davidson diagonalization with overlap
     c_bands:  1 eigenvalues not converged
     ethr =  4.54E-05,  avg # of iterations =  7.6

     negative rho (up, down):  2.834E-03 0.000E+00

     total cpu time spent up to now is       15.5 secs

     total energy              =     -59.78053780 Ry
     estimated scf accuracy    <       0.00444807 Ry

     iteration # 16     ecut=    50.00 Ry     beta= 0.70
     Davidson diagonalization with overlap
     c_bands:  3 eigenvalues not converged
     c_bands:  2 eigenvalues not converged
     c_bands:  1 eigenvalues not converged
     c_bands:  1 eigenvalues not converged
     c_bands:  1 eigenvalues not converged
     c_bands:  1 eigenvalues not converged
     c_bands:  1 eigenvalues not converged
     ethr =  1.39E-05,  avg # of iterations = 14.4

     negative rho (up, down):  1.922E-03 0.000E+00

     total cpu time spent up to now is       17.2 secs

     total energy              =     -59.79872166 Ry
     estimated scf accuracy    <       0.04236668 Ry

     iteration # 17     ecut=    50.00 Ry     beta= 0.70
     Davidson diagonalization with overlap
     c_bands:  1 eigenvalues not converged
     c_bands:  2 eigenvalues not converged
     c_bands:  2 eigenvalues not converged
     c_bands:  2 eigenvalues not converged
     c_bands:  2 eigenvalues not converged
     ethr =  1.39E-05,  avg # of iterations =  9.9

     negative rho (up, down):  1.926E-03 0.000E+00

     total cpu time spent up to now is       18.1 secs

     total energy              =     -59.80608761 Ry
     estimated scf accuracy    <       0.06653360 Ry

     iteration # 18     ecut=    50.00 Ry     beta= 0.70
     Davidson diagonalization with overlap
     c_bands:  2 eigenvalues not converged
     ethr =  1.39E-05,  avg # of iterations =  6.5

     negative rho (up, down):  1.745E-03 0.000E+00

     total cpu time spent up to now is       18.9 secs

     total energy              =     -59.80648762 Ry
     estimated scf accuracy    <       0.08343982 Ry

     iteration # 19     ecut=    50.00 Ry     beta= 0.70
     Davidson diagonalization with overlap
     ethr =  1.39E-05,  avg # of iterations =  2.2

     negative rho (up, down):  2.421E-03 0.000E+00

     total cpu time spent up to now is       19.4 secs

     total energy              =     -59.76472877 Ry
     estimated scf accuracy    <       0.08460215 Ry

     iteration # 20     ecut=    50.00 Ry     beta= 0.70
     Davidson diagonalization with overlap
     c_bands:  1 eigenvalues not converged
     c_bands:  2 eigenvalues not converged
     c_bands:  2 eigenvalues not converged
     c_bands:  1 eigenvalues not converged
     ethr =  1.39E-05,  avg # of iterations = 12.6

     negative rho (up, down):  2.138E-03 0.000E+00

     total cpu time spent up to now is       20.7 secs

     total energy              =     -59.77702164 Ry
     estimated scf accuracy    <       0.00186647 Ry

     iteration # 21     ecut=    50.00 Ry     beta= 0.70
     Davidson diagonalization with overlap
     c_bands:  1 eigenvalues not converged
     ethr =  5.83E-06,  avg # of iterations =  7.3

     negative rho (up, down):  2.133E-03 0.000E+00

     total cpu time spent up to now is       21.6 secs

     total energy              =     -59.77782869 Ry
     estimated scf accuracy    <       0.00010680 Ry

     iteration # 22     ecut=    50.00 Ry     beta= 0.70
     Davidson diagonalization with overlap
     c_bands:  1 eigenvalues not converged
     c_bands:  1 eigenvalues not converged
     ethr =  3.34E-07,  avg # of iterations = 14.1

     negative rho (up, down):  2.136E-03 0.000E+00

     total cpu time spent up to now is       23.5 secs

     total energy              =     -59.77815421 Ry
     estimated scf accuracy    <       0.00026268 Ry

     iteration # 23     ecut=    50.00 Ry     beta= 0.70
     Davidson diagonalization with overlap
     ethr =  3.34E-07,  avg # of iterations =  1.9

     negative rho (up, down):  2.224E-03 0.000E+00

     total cpu time spent up to now is       24.0 secs

     total energy              =     -59.77810693 Ry
     estimated scf accuracy    <       0.00010327 Ry

     iteration # 24     ecut=    50.00 Ry     beta= 0.70
     Davidson diagonalization with overlap
     ethr =  3.23E-07,  avg # of iterations =  5.1

     negative rho (up, down):  2.228E-03 0.000E+00

     total cpu time spent up to now is       24.8 secs

     total energy              =     -59.77814091 Ry
     estimated scf accuracy    <       0.00000160 Ry

     iteration # 25     ecut=    50.00 Ry     beta= 0.70
     Davidson diagonalization with overlap
     ethr =  5.00E-09,  avg # of iterations = 15.9

     negative rho (up, down):  2.223E-03 0.000E+00

     total cpu time spent up to now is       27.1 secs

     total energy              =     -59.77815182 Ry
     estimated scf accuracy    <       0.00000800 Ry

     iteration # 26     ecut=    50.00 Ry     beta= 0.70
     Davidson diagonalization with overlap
     ethr =  5.00E-09,  avg # of iterations =  3.1

     negative rho (up, down):  2.217E-03 0.000E+00

     total cpu time spent up to now is       27.7 secs

     total energy              =     -59.77815053 Ry
     estimated scf accuracy    <       0.00000224 Ry

     iteration # 27     ecut=    50.00 Ry     beta= 0.70
     Davidson diagonalization with overlap
     ethr =  5.00E-09,  avg # of iterations =  7.9

     negative rho (up, down):  2.220E-03 0.000E+00

     total cpu time spent up to now is       28.9 secs

     total energy              =     -59.77815194 Ry
     estimated scf accuracy    <       0.00000300 Ry

     iteration # 28     ecut=    50.00 Ry     beta= 0.70
     Davidson diagonalization with overlap
     ethr =  5.00E-09,  avg # of iterations =  2.0

     negative rho (up, down):  2.223E-03 0.000E+00

     total cpu time spent up to now is       29.4 secs

     total energy              =     -59.77815174 Ry
     estimated scf accuracy    <       0.00000061 Ry

     iteration # 29     ecut=    50.00 Ry     beta= 0.70
     Davidson diagonalization with overlap
     ethr =  1.91E-09,  avg # of iterations =  6.0

     negative rho (up, down):  2.222E-03 0.000E+00

     total cpu time spent up to now is       30.3 secs

     total energy              =     -59.77815219 Ry
     estimated scf accuracy    <       0.00000035 Ry

     iteration # 30     ecut=    50.00 Ry     beta= 0.70
     Davidson diagonalization with overlap
     ethr =  1.10E-09,  avg # of iterations =  1.9

     negative rho (up, down):  2.222E-03 0.000E+00

     total cpu time spent up to now is       30.8 secs

     total energy              =     -59.77815222 Ry
     estimated scf accuracy    <       0.00000009 Ry

     iteration # 31     ecut=    50.00 Ry     beta= 0.70
     Davidson diagonalization with overlap
     ethr =  2.71E-10,  avg # of iterations =  2.9

     negative rho (up, down):  2.221E-03 0.000E+00

     total cpu time spent up to now is       31.4 secs

     total energy              =     -59.77815218 Ry
     estimated scf accuracy    <       0.00000007 Ry

     iteration # 32     ecut=    50.00 Ry     beta= 0.70
     Davidson diagonalization with overlap
     ethr =  2.34E-10,  avg # of iterations =  4.4

     negative rho (up, down):  2.221E-03 0.000E+00

     total cpu time spent up to now is       32.0 secs

     End of self-consistent calculation

          k = 0.0000 0.0000 0.0000 (  3135 PWs)   bands (ev):

   -35.9603 -30.9219 -30.9219 -24.8791 -16.6287 -16.6287 -16.3865 -11.9511
   -11.9511  -8.7491  -6.5435  -5.7211  -0.6319  -0.6319   2.3917   4.4943
     7.7682   8.1041   9.1884  10.6546

          k = 0.0000 0.0962 0.0000 (  3173 PWs)   bands (ev):

   -36.1398 -31.1616 -30.7713 -24.7883 -16.5763 -16.2699 -16.0548 -12.4207
   -12.2338  -8.2686  -6.3111  -5.9249  -0.8308  -0.0499   2.8744   4.6617
     7.9832   8.2928   9.3641  10.0432

          k = 0.0000 0.1925 0.0000 (  3183 PWs)   bands (ev):

   -36.5754 -31.7524 -30.4282 -24.4866 -16.3377 -15.9407 -14.5567 -13.5206
   -12.8145  -7.0824  -6.5295  -5.6213  -1.0063   1.4564   3.4493   5.1203
     6.8483   8.6297   8.8526   9.9153

          k = 0.0000 0.2887 0.0000 (  3177 PWs)   bands (ev):

   -37.0810 -32.4480 -30.0943 -23.9401 -16.1496 -15.5966 -14.3097 -14.0119
   -11.7991  -7.3781  -5.9032  -4.5956  -1.0410   3.0538   3.3414   4.2506
     6.0430   8.6992   9.7010   9.9210

          k = 0.0000 0.3849 0.0000 (  3189 PWs)   bands (ev):

   -37.5215 -33.0531 -29.8747 -23.1350 -17.3304 -14.7888 -14.5913 -13.6494
    -9.1399  -8.4068  -5.2624  -3.9163  -1.2444   2.1486   3.5590   4.8076
     7.1909   7.3945   8.5812  10.2803

          k = 0.0000 0.4811 0.0000 (  3207 PWs)   bands (ev):

   -37.8138 -33.4536 -29.7695 -22.1579 -18.7592 -15.0129 -13.9307 -12.3443
    -9.5603  -6.5186  -5.0439  -4.9234  -0.7597   1.8750   3.8510   4.8773
     6.2907   6.5473   8.6516  11.3017

          k = 0.0000-0.5774 0.0000 (  3208 PWs)   bands (ev):

   -37.9152 -33.5925 -29.7405 -21.4935 -19.5811 -15.1605 -13.5316 -11.0886
   -10.6423  -5.8473  -5.2269  -4.8292  -0.4111   1.8273   4.0449   4.0480
     5.9111   6.1843   9.5662  11.9715

          k = 0.0833 0.1443 0.0000 (  3191 PWs)   bands (ev):

   -36.4409 -31.6319 -30.4647 -24.5967 -16.4720 -16.0431 -14.9697 -13.1307
   -12.7546  -7.4337  -6.2833  -5.8802  -0.9837   0.9671   3.3734   4.9636
     7.6384   8.4339   8.6574  10.1345

          k = 0.0833 0.2406 0.0000 (  3176 PWs)   bands (ev):

   -36.8836 -32.3821 -29.9995 -24.1755 -16.2102 -15.7048 -14.1912 -13.9674
   -12.4655  -6.9234  -6.2534  -5.0029  -1.0241   2.5649   3.3775   4.8971
     5.5142   8.9062   9.2744   9.3772

          k = 0.0833 0.3368 0.0000 (  3174 PWs)   bands (ev):

   -37.3147 -33.1347 -29.5939 -23.5032 -16.6126 -15.4469 -14.4326 -14.2406
   -10.0290  -7.7766  -5.3924  -3.9155  -1.2200   2.2634   3.6311   4.1631
     6.2213   7.9038  10.3019  10.5371

          k = 0.0833 0.4330 0.0000 (  3188 PWs)   bands (ev):

   -37.6405 -33.7148 -29.3358 -22.5972 -18.0204 -15.3871 -14.1583 -13.2664
    -9.1015  -7.0467  -4.8888  -4.1831  -1.2307   1.8908   3.4001   5.2211
     6.3280   7.0404   9.0110  10.8619

          k = 0.0833 0.5292 0.0000 (  3187 PWs)   bands (ev):

   -37.8126 -34.0260 -29.2202 -21.6388 -19.2935 -15.5870 -13.5730 -11.8647
   -10.3618  -5.6315  -4.6695  -4.6463  -0.6103   1.9194   3.5361   4.4389
     5.7938   6.7661   9.6343  11.0362

          k = 0.1667 0.2887 0.0000 (  3165 PWs)   bands (ev):

   -37.2060 -33.3040 -29.3187 -23.6444 -16.2118 -15.8130 -14.6357 -14.4053
   -10.2066  -7.4561  -5.4188  -3.9640  -1.1888   2.2359   3.6958   3.8404
     5.6521   8.1163  10.3155  10.3504

          k = 0.1667 0.3849 0.0000 (  3167 PWs)   bands (ev):

   -37.4404 -34.1689 -28.7008 -22.8731 -17.1783 -16.2791 -14.3472 -13.9688
    -8.8215  -6.9636  -4.7083  -3.3711  -1.8058   1.6538   3.3636   4.5678
     6.1320   7.3610  10.6280  11.7280

          k = 0.1667 0.4811 0.0000 (  3169 PWs)   bands (ev):

   -37.5609 -34.7761 -28.3039 -21.9007 -18.6144 -16.5343 -13.6432 -13.0873
    -9.9309  -5.3225  -4.2287  -3.6984  -1.1570   2.0243   3.1015   5.1447
     5.5854   7.1389  10.4060  10.6260

          k = 0.1667 0.5774 0.0000 (  3186 PWs)   bands (ev):

   -37.5935 -34.9961 -28.1714 -21.1970 -19.4893 -16.6341 -13.3564 -12.0955
   -11.0189  -5.4741  -4.0578  -3.3411   0.0402   2.2251   3.0566   4.1248
     5.2698   8.0480   9.3192  11.2333

          k = 0.2500 0.4330 0.0000 (  3157 PWs)   bands (ev):

   -37.3960 -35.1433 -27.8672 -22.0321 -17.9765 -17.2939 -13.7575 -13.5341
    -9.7575  -5.1692  -4.0005  -3.1898  -1.5600   1.9829   3.1183   4.7769
     6.1270   7.1746  10.9509  11.4774

          k = 0.2500 0.5292 0.0000 (  3158 PWs)   bands (ev):

   -37.2340 -35.8062 -27.3806 -21.0434 -19.2108 -17.6229 -13.2346 -12.8087
   -11.0540  -4.9929  -3.6198  -3.4915   1.2034   2.6115   2.9958   4.4052
     5.2826   8.1389   9.4142   9.9473

          k = 0.3333 0.5774 0.0000 (  3171 PWs)   bands (ev):

   -36.6447 -36.6447 -27.0074 -20.0653 -20.0652 -18.0760 -13.0965 -12.1140
   -12.1137  -4.3877  -4.3875  -3.2220   2.6162   3.4563   3.4565   5.0664
     5.0666   5.9918   8.6671  10.5432

     the Fermi energy is     5.2544 ev

!    total energy              =     -59.77815221 Ry
     estimated scf accuracy    <          1.6E-10 Ry
     smearing contrib. (-TS)   =      -0.00034854 Ry
     internal energy E=F+TS    =     -59.77780367 Ry

     The total energy is F=E-TS. E is the sum of the following terms:
     one-electron contribution =   -2245.69606838 Ry
     hartree contribution      =    1134.03388055 Ry
     xc contribution           =     -45.01023528 Ry
     ewald contribution        =    1096.89461944 Ry

     convergence has been achieved in  32 iterations

     negative rho (up, down):  2.221E-03 0.000E+00

     Forces acting on atoms (cartesian axes, Ry/au):

     atom    1 type  1   force =     0.00000000    0.00000000  -22.78089595
     atom    2 type  1   force =     0.00000000    0.00000000   -2.71473248
     atom    3 type  1   force =     0.00000000    0.00000000   -2.19329233
     atom    4 type  1   force =     0.00000000    0.00000000    3.39165803
     atom    5 type  1   force =     0.00000000    0.00000000   -3.39204457
     atom    6 type  1   force =     0.00000000    0.00000000    2.19341879
     atom    7 type  1   force =     0.00000000    0.00000000    2.71484317
     atom    8 type  1   force =     0.00000000    0.00000000   22.78104535

     Total force =    32.944139     Total SCF correction =     0.000041


     Computing stress (Cartesian axis) and pressure


     negative rho (up, down):  2.221E-03 0.000E+00
          total   stress  (Ry/bohr**3)                   (kbar)     P=     9004.18
   0.02623823   0.00000000   0.00000000         3859.78        0.00        0.00
   0.00000000   0.02623823   0.00000000            0.00     3859.78        0.00
   0.00000000   0.00000000   0.13115111            0.00        0.00    19292.99


     Writing all to output data dir /run/media/rfa/SATA/Skripsi/DFT/Graphene-copy/tmp/gr-ab-4L.save/ :
     XML data file, charge density, pseudopotentials, collected wavefunctions

     init_run     :      0.65s CPU      0.68s WALL (       1 calls)
     electrons    :     60.10s CPU     31.28s WALL (       1 calls)
     forces       :      0.15s CPU      0.08s WALL (       1 calls)
     stress       :      0.50s CPU      0.28s WALL (       1 calls)

     Called by init_run:
     wfcinit      :      0.40s CPU      0.23s WALL (       1 calls)
     potinit      :      0.01s CPU      0.01s WALL (       1 calls)
     hinit0       :      0.22s CPU      0.41s WALL (       1 calls)

     Called by electrons:
     c_bands      :     54.23s CPU     28.10s WALL (      32 calls)
     sum_band     :      5.18s CPU      2.68s WALL (      32 calls)
     v_of_rho     :      0.28s CPU      0.21s WALL (      33 calls)
     newd         :      0.20s CPU      0.18s WALL (      33 calls)
     mix_rho      :      0.16s CPU      0.08s WALL (      32 calls)

     Called by c_bands:
     init_us_2    :      0.94s CPU      0.50s WALL (    1273 calls)
     cegterg      :     52.66s CPU     27.22s WALL (     609 calls)

     Called by *egterg:
     cdiaghg      :      5.74s CPU      2.95s WALL (    4963 calls)
     h_psi        :     37.34s CPU     19.39s WALL (    4982 calls)
     s_psi        :      1.43s CPU      0.72s WALL (    4982 calls)
     g_psi        :      0.32s CPU      0.17s WALL (    4354 calls)

     Called by h_psi:
     h_psi:calbec :      5.29s CPU      2.77s WALL (    4982 calls)
     vloc_psi     :     29.42s CPU     15.25s WALL (    4982 calls)
     add_vuspsi   :      2.20s CPU      1.12s WALL (    4982 calls)

     General routines
     calbec       :      6.17s CPU      3.23s WALL (    5913 calls)
     fft          :      0.30s CPU      0.47s WALL (     388 calls)
     ffts         :      0.02s CPU      0.01s WALL (      32 calls)
     fftw         :     27.95s CPU     14.39s WALL (  114608 calls)

     Parallel routines

     PWSCF        :   1m 1.50s CPU     32.72s WALL


   This run was terminated on:  15:15:35  16Apr2025            

=------------------------------------------------------------------------------=
   JOB DONE.
=------------------------------------------------------------------------------=
