
     Program PWSCF v.7.4.1 starts on 16Apr2025 at 15:13:21 

     This program is part of the open-source Quantum ESPRESSO suite
     for quantum simulation of materials; please cite
         "P. Giannozzi et al., J. Phys.:Condens. Matter 21 395502 (2009);
         "P. Giannozzi et al., J. Phys.:Condens. Matter 29 465901 (2017);
         "P. Giannozzi et al., J. Chem. Phys. 152 154105 (2020);
          URL http://www.quantum-espresso.org", 
     in publications or presentations arising from this work. More details at
     http://www.quantum-espresso.org/quote

     Parallel version (MPI), running on     7 processors

     MPI processes distributed on     1 nodes
     14755 MiB available memory on the printing compute node when the environment starts

     Waiting for input...
     Reading input from standard input

     Current dimensions of program PWSCF are:
     Max number of different atomic species (ntypx) = 10
     Max number of k-points (npk) =  40000
     Max angular momentum in pseudopotentials (lmaxx) =  4

     R & G space division:  proc/nbgrp/npool/nimage =       7
     Subspace diagonalization in iterative solution of the eigenvalue problem:
     a serial algorithm will be used


     Parallelization info
     --------------------
     sticks:   dense  smooth     PW     G-vecs:    dense   smooth      PW
     Min          18      18      6                 1042     1042     210
     Max          19      19      7                 1062     1062     224
     Sum         127     127     43                 7339     7339    1521

     Using Slab Decomposition



     bravais-lattice index     =            4
     lattice parameter (alat)  =       4.6561  a.u.
     unit-cell volume          =     532.1899 (a.u.)^3
     number of atoms/cell      =            8
     number of atomic types    =            1
     number of electrons       =        32.00
     number of Kohn-Sham states=           20
     kinetic-energy cutoff     =      22.0000  Ry
     charge density cutoff     =      88.0000  Ry
     scf convergence threshold =      1.0E-08
     mixing beta               =       0.7000
     number of iterations used =            8  plain     mixing
     Exchange-correlation= PBE
                           (   1   4   3   4   0   0   0)

     celldm(1)=   4.656107  celldm(2)=   0.000000  celldm(3)=   6.087896
     celldm(4)=   0.000000  celldm(5)=   0.000000  celldm(6)=   0.000000

     crystal axes: (cart. coord. in units of alat)
               a(1) = (   1.000000   0.000000   0.000000 )  
               a(2) = (  -0.500000   0.866025   0.000000 )  
               a(3) = (   0.000000   0.000000   6.087896 )  

     reciprocal axes: (cart. coord. in units 2 pi/alat)
               b(1) = (  1.000000  0.577350 -0.000000 )  
               b(2) = (  0.000000  1.154701  0.000000 )  
               b(3) = (  0.000000 -0.000000  0.164260 )  


     PseudoPot. # 1 for C  read from file:
     /run/media/rfa/SATA/Skripsi/DFT/Graphene-copy/pseudo/C.pbe-n-rrkjus_psl.0.1.UPF
     MD5 check sum: 96a6a315177d77e6c95bf6fd3870f9e3
     Pseudo is Ultrasoft + core correction, Zval =  4.0
     Generated using &quot;atomic&quot; code by A. Dal Corso  v.6.3MaX
     Using radial grid of 1073 points,  4 beta functions with: 
                l(1) =   0
                l(2) =   0
                l(3) =   1
                l(4) =   1
     Q(r) pseudized with 0 coefficients 


     atomic species   valence    mass     pseudopotential
     C                 4.00    12.01070     C ( 1.00)

      6 Sym. Ops. (no inversion) found



   Cartesian axes

     site n.     atom                  positions (alat units)
         1        C      tau(   1) = (   0.0000000   0.5773503   3.0439478  )
         2        C      tau(   2) = (   0.5000000   0.2886751   3.0439478  )
         3        C      tau(   3) = (   0.0000000   0.0000000   3.2468777  )
         4        C      tau(   4) = (   0.0000000   0.5773503   3.2468777  )
         5        C      tau(   5) = (   0.0000000   0.5773503   3.4498075  )
         6        C      tau(   6) = (   0.5000000   0.2886751   3.4498075  )
         7        C      tau(   7) = (   0.0000000   0.0000000   3.6527374  )
         8        C      tau(   8) = (   0.0000000   0.5773503   3.6527374  )

     number of k points=    19  Marzari-Vanderbilt smearing, width (Ry)=  0.0200
                       cart. coord. in units 2pi/alat
        k(    1) = (   0.0000000   0.0000000   0.0000000), wk =   0.0138889
        k(    2) = (   0.0000000   0.0962250   0.0000000), wk =   0.0833333
        k(    3) = (   0.0000000   0.1924501   0.0000000), wk =   0.0833333
        k(    4) = (   0.0000000   0.2886751   0.0000000), wk =   0.0833333
        k(    5) = (   0.0000000   0.3849002   0.0000000), wk =   0.0833333
        k(    6) = (   0.0000000   0.4811252   0.0000000), wk =   0.0833333
        k(    7) = (   0.0000000  -0.5773503   0.0000000), wk =   0.0416667
        k(    8) = (   0.0833333   0.1443376   0.0000000), wk =   0.0833333
        k(    9) = (   0.0833333   0.2405626   0.0000000), wk =   0.1666667
        k(   10) = (   0.0833333   0.3367877   0.0000000), wk =   0.1666667
        k(   11) = (   0.0833333   0.4330127   0.0000000), wk =   0.1666667
        k(   12) = (   0.0833333   0.5292377   0.0000000), wk =   0.1666667
        k(   13) = (   0.1666667   0.2886751   0.0000000), wk =   0.0833333
        k(   14) = (   0.1666667   0.3849002   0.0000000), wk =   0.1666667
        k(   15) = (   0.1666667   0.4811252   0.0000000), wk =   0.1666667
        k(   16) = (   0.1666667   0.5773503   0.0000000), wk =   0.0833333
        k(   17) = (   0.2500000   0.4330127   0.0000000), wk =   0.0833333
        k(   18) = (   0.2500000   0.5292377   0.0000000), wk =   0.1666667
        k(   19) = (   0.3333333   0.5773503   0.0000000), wk =   0.0277778

     Dense  grid:     7339 G-vectors     FFT dimensions: (  15,  15,  90)

     Estimated max dynamical RAM per process >       2.84 MB

     Estimated total dynamical RAM >      19.85 MB

     Check: negative core charge=   -0.000296

     Initial potential from superposition of free atoms

     starting charge      31.9997, renormalised to      32.0000

     negative rho (up, down):  1.414E-02 0.000E+00
     Starting wfcs are   32 randomized atomic wfcs

     total cpu time spent up to now is        0.4 secs

     per-process dynamical memory:     8.9 Mb

     Self-consistent Calculation

     iteration #  1     ecut=    22.00 Ry     beta= 0.70
     Davidson diagonalization with overlap
     ethr =  1.00E-02,  avg # of iterations =  6.3

     negative rho (up, down):  1.293E-01 0.000E+00

     total cpu time spent up to now is        0.7 secs

     total energy              =     -45.76974946 Ry
     estimated scf accuracy    <      19.66932004 Ry

     iteration #  2     ecut=    22.00 Ry     beta= 0.70
     Davidson diagonalization with overlap
     ethr =  1.00E-02,  avg # of iterations = 10.7

     negative rho (up, down):  2.373E-04 0.000E+00

     total cpu time spent up to now is        1.2 secs

     total energy              =     -22.24886665 Ry
     estimated scf accuracy    <     140.08660899 Ry

     iteration #  3     ecut=    22.00 Ry     beta= 0.70
     Davidson diagonalization with overlap
     ethr =  1.00E-02,  avg # of iterations =  8.9

     negative rho (up, down):  3.099E-03 0.000E+00

     total cpu time spent up to now is        1.6 secs

     total energy              =     -54.83384857 Ry
     estimated scf accuracy    <       4.09830852 Ry

     iteration #  4     ecut=    22.00 Ry     beta= 0.70
     Davidson diagonalization with overlap
     ethr =  1.00E-02,  avg # of iterations =  2.0

     negative rho (up, down):  1.064E-02 0.000E+00

     total cpu time spent up to now is        1.7 secs

     total energy              =     -54.86720008 Ry
     estimated scf accuracy    <       1.59016543 Ry

     iteration #  5     ecut=    22.00 Ry     beta= 0.70
     Davidson diagonalization with overlap
     ethr =  4.97E-03,  avg # of iterations =  1.1

     negative rho (up, down):  2.646E-02 0.000E+00

     total cpu time spent up to now is        1.9 secs

     total energy              =     -54.52757074 Ry
     estimated scf accuracy    <       1.20768941 Ry

     iteration #  6     ecut=    22.00 Ry     beta= 0.70
     Davidson diagonalization with overlap
     ethr =  3.77E-03,  avg # of iterations =  1.0

     negative rho (up, down):  3.156E-02 0.000E+00

     total cpu time spent up to now is        2.0 secs

     total energy              =     -54.48320640 Ry
     estimated scf accuracy    <       0.64409320 Ry

     iteration #  7     ecut=    22.00 Ry     beta= 0.70
     Davidson diagonalization with overlap
     ethr =  2.01E-03,  avg # of iterations =  1.3

     negative rho (up, down):  3.510E-02 0.000E+00

     total cpu time spent up to now is        2.1 secs

     total energy              =     -54.44930362 Ry
     estimated scf accuracy    <       0.55282166 Ry

     iteration #  8     ecut=    22.00 Ry     beta= 0.70
     Davidson diagonalization with overlap
     ethr =  1.73E-03,  avg # of iterations =  1.0

     negative rho (up, down):  7.682E-02 0.000E+00

     total cpu time spent up to now is        2.3 secs

     total energy              =     -54.19574419 Ry
     estimated scf accuracy    <       0.48764530 Ry

     iteration #  9     ecut=    22.00 Ry     beta= 0.70
     Davidson diagonalization with overlap
     ethr =  1.52E-03,  avg # of iterations =  2.7

     negative rho (up, down):  1.017E-01 0.000E+00

     total cpu time spent up to now is        2.4 secs

     total energy              =     -54.14292135 Ry
     estimated scf accuracy    <       0.15456847 Ry

     iteration # 10     ecut=    22.00 Ry     beta= 0.70
     Davidson diagonalization with overlap
     ethr =  4.83E-04,  avg # of iterations =  4.0

     negative rho (up, down):  1.195E-01 0.000E+00

     total cpu time spent up to now is        2.6 secs

     total energy              =     -54.12585098 Ry
     estimated scf accuracy    <       0.05674026 Ry

     iteration # 11     ecut=    22.00 Ry     beta= 0.70
     Davidson diagonalization with overlap
     ethr =  1.77E-04,  avg # of iterations =  3.9

     negative rho (up, down):  1.623E-01 0.000E+00

     total cpu time spent up to now is        2.8 secs

     total energy              =     -54.10735091 Ry
     estimated scf accuracy    <       0.02479662 Ry

     iteration # 12     ecut=    22.00 Ry     beta= 0.70
     Davidson diagonalization with overlap
     c_bands:  1 eigenvalues not converged
     ethr =  7.75E-05,  avg # of iterations =  8.8

     negative rho (up, down):  1.599E-01 0.000E+00

     total cpu time spent up to now is        3.0 secs

     total energy              =     -54.11161124 Ry
     estimated scf accuracy    <       0.00032075 Ry

     iteration # 13     ecut=    22.00 Ry     beta= 0.70
     Davidson diagonalization with overlap
     c_bands:  1 eigenvalues not converged
     ethr =  1.00E-06,  avg # of iterations =  8.2

     negative rho (up, down):  1.593E-01 0.000E+00

     total cpu time spent up to now is        3.4 secs

     total energy              =     -54.11183343 Ry
     estimated scf accuracy    <       0.00004387 Ry

     iteration # 14     ecut=    22.00 Ry     beta= 0.70
     Davidson diagonalization with overlap
     ethr =  1.37E-07,  avg # of iterations =  3.2

     negative rho (up, down):  1.605E-01 0.000E+00

     total cpu time spent up to now is        3.5 secs

     total energy              =     -54.11183262 Ry
     estimated scf accuracy    <       0.00002009 Ry

     iteration # 15     ecut=    22.00 Ry     beta= 0.70
     Davidson diagonalization with overlap
     ethr =  6.28E-08,  avg # of iterations =  4.0

     negative rho (up, down):  1.599E-01 0.000E+00

     total cpu time spent up to now is        3.7 secs

     total energy              =     -54.11183309 Ry
     estimated scf accuracy    <       0.00004694 Ry

     iteration # 16     ecut=    22.00 Ry     beta= 0.70
     Davidson diagonalization with overlap
     ethr =  6.28E-08,  avg # of iterations =  2.0

     negative rho (up, down):  1.599E-01 0.000E+00

     total cpu time spent up to now is        3.9 secs

     total energy              =     -54.11183708 Ry
     estimated scf accuracy    <       0.00000392 Ry

     iteration # 17     ecut=    22.00 Ry     beta= 0.70
     Davidson diagonalization with overlap
     ethr =  1.23E-08,  avg # of iterations =  2.1

     negative rho (up, down):  1.597E-01 0.000E+00

     total cpu time spent up to now is        4.1 secs

     total energy              =     -54.11183691 Ry
     estimated scf accuracy    <       0.00000110 Ry

     iteration # 18     ecut=    22.00 Ry     beta= 0.70
     Davidson diagonalization with overlap
     ethr =  3.42E-09,  avg # of iterations =  3.3

     negative rho (up, down):  1.597E-01 0.000E+00

     total cpu time spent up to now is        4.2 secs

     total energy              =     -54.11183722 Ry
     estimated scf accuracy    <       0.00000011 Ry

     iteration # 19     ecut=    22.00 Ry     beta= 0.70
     Davidson diagonalization with overlap
     ethr =  3.58E-10,  avg # of iterations =  4.2

     negative rho (up, down):  1.597E-01 0.000E+00

     total cpu time spent up to now is        4.5 secs

     total energy              =     -54.11183717 Ry
     estimated scf accuracy    <       0.00000012 Ry

     iteration # 20     ecut=    22.00 Ry     beta= 0.70
     Davidson diagonalization with overlap
     ethr =  3.58E-10,  avg # of iterations =  1.7

     negative rho (up, down):  1.597E-01 0.000E+00

     total cpu time spent up to now is        4.6 secs

     total energy              =     -54.11183709 Ry
     estimated scf accuracy    <       0.00000007 Ry

     iteration # 21     ecut=    22.00 Ry     beta= 0.70
     Davidson diagonalization with overlap
     ethr =  2.23E-10,  avg # of iterations =  1.1

     negative rho (up, down):  1.597E-01 0.000E+00

     total cpu time spent up to now is        4.7 secs

     total energy              =     -54.11183702 Ry
     estimated scf accuracy    <       0.00000002 Ry

     iteration # 22     ecut=    22.00 Ry     beta= 0.70
     Davidson diagonalization with overlap
     ethr =  7.62E-11,  avg # of iterations =  2.1

     negative rho (up, down):  1.597E-01 0.000E+00

     total cpu time spent up to now is        4.9 secs

     End of self-consistent calculation

          k = 0.0000 0.0000 0.0000 (   943 PWs)   bands (ev):

   -37.5521 -35.5075 -35.5075 -24.0667 -17.9679 -17.9679 -14.5158 -14.5158
   -13.7860  -8.3541  -6.9900  -2.3373  -1.5748  -1.5748   2.7606   5.7592
     5.9669   7.4187   8.0545   9.6713

          k = 0.0000 0.0962 0.0000 (   946 PWs)   bands (ev):

   -38.1701 -35.7551 -34.9885 -24.0593 -17.9011 -17.4711 -14.7549 -14.7447
   -13.7958  -7.8113  -7.1570  -2.3999  -1.7839  -1.0105   3.0281   5.9779
     6.1292   7.6105   7.7946   8.3309

          k = 0.0000 0.1925 0.0000 (   952 PWs)   bands (ev):

   -39.1406 -36.3478 -33.8958 -23.9915 -17.6427 -16.2968 -15.2944 -15.2053
   -13.4237  -7.1603  -6.5449  -2.2111  -1.9835   0.3588   3.0895   4.7917
     6.5691   6.7048   7.6710   8.2796

          k = 0.0000 0.2887 0.0000 (   960 PWs)   bands (ev):

   -39.9905 -36.9170 -32.8177 -23.8518 -17.0581 -16.4284 -15.9909 -13.6716
   -12.7974  -7.3647  -5.2209  -2.7263  -1.6694   1.5953   2.0829   2.7652
     6.9423   7.7498   8.2518   8.8322

          k = 0.0000 0.3849 0.0000 (   934 PWs)   bands (ev):

   -40.5016 -37.3638 -31.9434 -23.4265 -16.8894 -16.6183 -15.7754 -11.6931
   -11.1144  -7.3374  -5.0395  -3.0092  -1.2580   1.1600   2.5445   3.5314
     7.1767   8.1252   8.6981   9.3687

          k = 0.0000 0.4811 0.0000 (   922 PWs)   bands (ev):

   -40.4096 -37.6272 -31.3848 -22.9493 -17.2996 -17.1083 -13.3209 -10.7645
    -8.5396  -8.2216  -6.1612  -2.5839  -1.5576   1.6608   3.5720   3.7293
     5.8016   5.9533  10.2113  10.5139

          k = 0.0000-0.5774 0.0000 (   906 PWs)   bands (ev):

   -40.1220 -37.6136 -31.1557 -22.7303 -17.4607 -17.3361 -11.7624 -10.4889
    -9.6523  -6.8083  -6.4807  -2.7982  -1.9045   2.3421   3.6827   3.6879
     4.8821   5.0391  11.0738  11.7139

          k = 0.0833 0.1443 0.0000 (   939 PWs)   bands (ev):

   -38.8787 -36.1249 -34.1791 -23.9954 -17.7511 -16.5700 -15.2117 -14.9642
   -13.4471  -6.9373  -6.8689  -2.0637  -1.9185  -0.0080   3.3066   5.6789
     6.4284   6.5151   7.5478   8.0282

          k = 0.0833 0.2406 0.0000 (   948 PWs)   bands (ev):

   -39.6862 -36.7381 -33.0626 -23.9103 -17.4199 -16.4780 -15.3018 -14.3548
   -12.9902  -7.2029  -5.5377  -2.5198  -1.7138   1.5725   2.1565   3.4024
     6.3153   7.2882   7.6872   8.8255

          k = 0.0833 0.3368 0.0000 (   946 PWs)   bands (ev):

   -40.3038 -37.3609 -32.0343 -23.6412 -17.3326 -16.6667 -15.6633 -12.3469
   -11.8541  -7.3711  -4.5661  -3.2054  -1.3285   0.8880   2.2741   3.1680
     6.3098   8.6193   8.8750   9.2669

          k = 0.0833 0.4330 0.0000 (   919 PWs)   bands (ev):

   -40.4018 -37.7825 -31.1805 -23.0975 -18.0501 -15.9373 -14.9783 -11.1008
    -9.2170  -7.4849  -5.4609  -2.6146  -1.3026   1.1844   2.3410   4.6278
     5.9909   7.0714   9.6214  10.4090

          k = 0.0833 0.5292 0.0000 (   915 PWs)   bands (ev):

   -40.2612 -37.9568 -30.7956 -22.7463 -18.5384 -16.1409 -13.0951 -10.7510
    -9.3642  -6.4922  -5.8795  -2.6365  -1.6506   1.9140   2.4997   3.9836
     5.0139   6.1058  10.8153  12.0347

          k = 0.1667 0.2887 0.0000 (   937 PWs)   bands (ev):

   -40.1569 -37.1214 -31.9321 -23.6718 -17.4538 -16.9394 -15.1391 -12.5635
   -11.8702  -7.1838  -4.2373  -3.2683  -1.0288   0.6042   2.5901   3.1014
     5.8261   8.3930   8.7074   9.6319

          k = 0.1667 0.3849 0.0000 (   922 PWs)   bands (ev):

   -40.3010 -38.0297 -30.7817 -23.2948 -18.5104 -16.2084 -15.1196 -11.5706
    -9.5360  -7.2148  -4.4733  -3.2482  -0.8483   0.4111   1.6865   4.6002
     5.9985   7.6794   9.9599  10.3286

          k = 0.1667 0.4811 0.0000 (   910 PWs)   bands (ev):

   -40.1736 -38.5209 -30.0242 -22.7561 -19.3345 -15.1829 -14.8339 -10.9784
    -9.0403  -6.3869  -4.2567  -2.3841  -1.1303   1.0927   1.3416   4.8266
     5.7049   6.7173  11.0436  12.0195

          k = 0.1667 0.5774 0.0000 (   914 PWs)   bands (ev):

   -40.3177 -38.7211 -29.8215 -22.5010 -19.7437 -15.1686 -13.8456 -11.8628
    -9.4033  -6.0867  -4.2408  -1.4467  -1.2958   1.1323   1.8293   4.0603
     4.1499   7.5687  11.0847  12.8311

          k = 0.2500 0.4330 0.0000 (   905 PWs)   bands (ev):

   -40.1371 -38.5664 -29.6291 -22.8125 -19.6318 -15.5045 -14.6853 -11.2201
    -9.1727  -6.3679  -3.2314  -2.8085  -0.9109   0.3814   1.1074   5.0184
     6.6279   7.3210  11.7064  12.1095

          k = 0.2500 0.5292 0.0000 (   904 PWs)   bands (ev):

   -40.0578 -39.1520 -29.0020 -22.2554 -20.5198 -14.6073 -14.4359 -12.3641
    -9.2240  -5.6751  -3.8227  -1.0743   0.1054   0.7389   1.6996   3.6798
     5.8685   8.6281   9.6256  11.5539

          k = 0.3333 0.5774 0.0000 (   900 PWs)   bands (ev):

   -39.5336 -39.5336 -28.5895 -21.5192 -21.5192 -14.2433 -13.5213 -13.5213
    -9.2176  -4.6782  -4.6782  -1.0991  -0.3083   2.4500   2.4500   5.2907
     6.2629   6.2629  10.4301  10.4301

     the Fermi energy is     5.0602 ev

!    total energy              =     -54.11183699 Ry
     estimated scf accuracy    <          2.5E-09 Ry
     smearing contrib. (-TS)   =       0.00041093 Ry
     internal energy E=F+TS    =     -54.11224792 Ry

     The total energy is F=E-TS. E is the sum of the following terms:
     one-electron contribution =   -2233.35691636 Ry
     hartree contribution      =    1126.57633135 Ry
     xc contribution           =     -44.22628382 Ry
     ewald contribution        =    1096.89462091 Ry

     convergence has been achieved in  22 iterations

     negative rho (up, down):  1.597E-01 0.000E+00

     Forces acting on atoms (cartesian axes, Ry/au):

     atom    1 type  1   force =     0.00000000    0.00000000  -27.72775451
     atom    2 type  1   force =     0.00000000   -0.00000000   -3.11421901
     atom    3 type  1   force =     0.00000000   -0.00000000   -2.60519436
     atom    4 type  1   force =     0.00000000   -0.00000000   -1.07783816
     atom    5 type  1   force =     0.00000000   -0.00000000    1.07784319
     atom    6 type  1   force =     0.00000000    0.00000000    2.60519093
     atom    7 type  1   force =    -0.00000000   -0.00000000    3.11421907
     atom    8 type  1   force =     0.00000000   -0.00000000   27.72775285

     Total force =    39.660445     Total SCF correction =     0.000137


     Computing stress (Cartesian axis) and pressure


     negative rho (up, down):  1.597E-01 0.000E+00
          total   stress  (Ry/bohr**3)                   (kbar)     P=     7158.74
   0.00408897   0.00000000   0.00000000          601.51        0.00        0.00
   0.00000000   0.00408897   0.00000000            0.00      601.51        0.00
   0.00000000   0.00000000   0.13781449            0.00        0.00    20273.21


     Writing all to output data dir /run/media/rfa/SATA/Skripsi/DFT/Graphene-copy/tmp/gr-ab-4L.save/ :
     XML data file, charge density, pseudopotentials, collected wavefunctions

     init_run     :      0.30s CPU      0.35s WALL (       1 calls)
     electrons    :      8.09s CPU      4.48s WALL (       1 calls)
     forces       :      0.03s CPU      0.02s WALL (       1 calls)
     stress       :      0.11s CPU      0.06s WALL (       1 calls)

     Called by init_run:
     wfcinit      :      0.16s CPU      0.09s WALL (       1 calls)
     potinit      :      0.00s CPU      0.00s WALL (       1 calls)
     hinit0       :      0.12s CPU      0.24s WALL (       1 calls)

     Called by electrons:
     c_bands      :      7.12s CPU      3.93s WALL (      22 calls)
     sum_band     :      0.81s CPU      0.45s WALL (      22 calls)
     v_of_rho     :      0.07s CPU      0.04s WALL (      23 calls)
     newd         :      0.05s CPU      0.03s WALL (      23 calls)
     mix_rho      :      0.03s CPU      0.01s WALL (      22 calls)

     Called by c_bands:
     init_us_2    :      0.14s CPU      0.07s WALL (     893 calls)
     cegterg      :      6.74s CPU      3.69s WALL (     418 calls)

     Called by *egterg:
     cdiaghg      :      1.94s CPU      1.01s WALL (    2003 calls)
     h_psi        :      3.88s CPU      2.21s WALL (    2022 calls)
     s_psi        :      0.16s CPU      0.08s WALL (    2022 calls)
     g_psi        :      0.04s CPU      0.02s WALL (    1585 calls)

     Called by h_psi:
     h_psi:calbec :      0.49s CPU      0.27s WALL (    2022 calls)
     vloc_psi     :      3.16s CPU      1.80s WALL (    2022 calls)
     add_vuspsi   :      0.17s CPU      0.10s WALL (    2022 calls)

     General routines
     calbec       :      0.63s CPU      0.35s WALL (    2763 calls)
     fft          :      0.13s CPU      0.24s WALL (     278 calls)
     ffts         :      0.00s CPU      0.00s WALL (      22 calls)
     fftw         :      3.09s CPU      1.73s WALL (   56108 calls)

     Parallel routines

     PWSCF        :      8.61s CPU      5.10s WALL


   This run was terminated on:  15:13:26  16Apr2025            

=------------------------------------------------------------------------------=
   JOB DONE.
=------------------------------------------------------------------------------=
