
     Program PWSCF v.7.4.1 starts on 16Apr2025 at 15:18:35 

     This program is part of the open-source Quantum ESPRESSO suite
     for quantum simulation of materials; please cite
         "P. Giannozzi et al., J. Phys.:Condens. Matter 21 395502 (2009);
         "P. Giannozzi et al., J. Phys.:Condens. Matter 29 465901 (2017);
         "P. Giannozzi et al., J. Chem. Phys. 152 154105 (2020);
          URL http://www.quantum-espresso.org", 
     in publications or presentations arising from this work. More details at
     http://www.quantum-espresso.org/quote

     Parallel version (MPI), running on     7 processors

     MPI processes distributed on     1 nodes
     14621 MiB available memory on the printing compute node when the environment starts

     Waiting for input...
     Reading input from standard input

     Current dimensions of program PWSCF are:
     Max number of different atomic species (ntypx) = 10
     Max number of k-points (npk) =  40000
     Max angular momentum in pseudopotentials (lmaxx) =  4

     R & G space division:  proc/nbgrp/npool/nimage =       7
     Subspace diagonalization in iterative solution of the eigenvalue problem:
     a serial algorithm will be used


     Parallelization info
     --------------------
     sticks:   dense  smooth     PW     G-vecs:    dense   smooth      PW
     Min          62      62     19                 6632     6632    1108
     Max          63      63     21                 6655     6655    1119
     Sum         439     439    139                46531    46531    7785

     Using Slab Decomposition



     bravais-lattice index     =            4
     lattice parameter (alat)  =       4.6561  a.u.
     unit-cell volume          =     532.1899 (a.u.)^3
     number of atoms/cell      =            8
     number of atomic types    =            1
     number of electrons       =        32.00
     number of Kohn-Sham states=           20
     kinetic-energy cutoff     =      75.0000  Ry
     charge density cutoff     =     300.0000  Ry
     scf convergence threshold =      1.0E-08
     mixing beta               =       0.7000
     number of iterations used =            8  plain     mixing
     Exchange-correlation= PBE
                           (   1   4   3   4   0   0   0)

     celldm(1)=   4.656107  celldm(2)=   0.000000  celldm(3)=   6.087896
     celldm(4)=   0.000000  celldm(5)=   0.000000  celldm(6)=   0.000000

     crystal axes: (cart. coord. in units of alat)
               a(1) = (   1.000000   0.000000   0.000000 )  
               a(2) = (  -0.500000   0.866025   0.000000 )  
               a(3) = (   0.000000   0.000000   6.087896 )  

     reciprocal axes: (cart. coord. in units 2 pi/alat)
               b(1) = (  1.000000  0.577350 -0.000000 )  
               b(2) = (  0.000000  1.154701  0.000000 )  
               b(3) = (  0.000000 -0.000000  0.164260 )  


     PseudoPot. # 1 for C  read from file:
     /run/media/rfa/SATA/Skripsi/DFT/Graphene-copy/pseudo/C.pbe-n-rrkjus_psl.0.1.UPF
     MD5 check sum: 96a6a315177d77e6c95bf6fd3870f9e3
     Pseudo is Ultrasoft + core correction, Zval =  4.0
     Generated using &quot;atomic&quot; code by A. Dal Corso  v.6.3MaX
     Using radial grid of 1073 points,  4 beta functions with: 
                l(1) =   0
                l(2) =   0
                l(3) =   1
                l(4) =   1
     Q(r) pseudized with 0 coefficients 


     atomic species   valence    mass     pseudopotential
     C                 4.00    12.01070     C ( 1.00)

      6 Sym. Ops. (no inversion) found



   Cartesian axes

     site n.     atom                  positions (alat units)
         1        C      tau(   1) = (   0.0000000   0.5773503   3.0439478  )
         2        C      tau(   2) = (   0.5000000   0.2886751   3.0439478  )
         3        C      tau(   3) = (   0.0000000   0.0000000   3.2468777  )
         4        C      tau(   4) = (   0.0000000   0.5773503   3.2468777  )
         5        C      tau(   5) = (   0.0000000   0.5773503   3.4498075  )
         6        C      tau(   6) = (   0.5000000   0.2886751   3.4498075  )
         7        C      tau(   7) = (   0.0000000   0.0000000   3.6527374  )
         8        C      tau(   8) = (   0.0000000   0.5773503   3.6527374  )

     number of k points=    19  Marzari-Vanderbilt smearing, width (Ry)=  0.0200
                       cart. coord. in units 2pi/alat
        k(    1) = (   0.0000000   0.0000000   0.0000000), wk =   0.0138889
        k(    2) = (   0.0000000   0.0962250   0.0000000), wk =   0.0833333
        k(    3) = (   0.0000000   0.1924501   0.0000000), wk =   0.0833333
        k(    4) = (   0.0000000   0.2886751   0.0000000), wk =   0.0833333
        k(    5) = (   0.0000000   0.3849002   0.0000000), wk =   0.0833333
        k(    6) = (   0.0000000   0.4811252   0.0000000), wk =   0.0833333
        k(    7) = (   0.0000000  -0.5773503   0.0000000), wk =   0.0416667
        k(    8) = (   0.0833333   0.1443376   0.0000000), wk =   0.0833333
        k(    9) = (   0.0833333   0.2405626   0.0000000), wk =   0.1666667
        k(   10) = (   0.0833333   0.3367877   0.0000000), wk =   0.1666667
        k(   11) = (   0.0833333   0.4330127   0.0000000), wk =   0.1666667
        k(   12) = (   0.0833333   0.5292377   0.0000000), wk =   0.1666667
        k(   13) = (   0.1666667   0.2886751   0.0000000), wk =   0.0833333
        k(   14) = (   0.1666667   0.3849002   0.0000000), wk =   0.1666667
        k(   15) = (   0.1666667   0.4811252   0.0000000), wk =   0.1666667
        k(   16) = (   0.1666667   0.5773503   0.0000000), wk =   0.0833333
        k(   17) = (   0.2500000   0.4330127   0.0000000), wk =   0.0833333
        k(   18) = (   0.2500000   0.5292377   0.0000000), wk =   0.1666667
        k(   19) = (   0.3333333   0.5773503   0.0000000), wk =   0.0277778

     Dense  grid:    46531 G-vectors     FFT dimensions: (  25,  25, 160)

     Estimated max dynamical RAM per process >      16.71 MB

     Estimated total dynamical RAM >     116.95 MB

     Check: negative core charge=   -0.000003

     Initial potential from superposition of free atoms

     starting charge      31.9997, renormalised to      32.0000

     negative rho (up, down):  7.608E-05 0.000E+00
     Starting wfcs are   32 randomized atomic wfcs

     total cpu time spent up to now is        0.9 secs

     per-process dynamical memory:    16.9 Mb

     Self-consistent Calculation

     iteration #  1     ecut=    75.00 Ry     beta= 0.70
     Davidson diagonalization with overlap
     ethr =  1.00E-02,  avg # of iterations = 10.6

     negative rho (up, down):  2.700E-04 0.000E+00

     total cpu time spent up to now is        3.3 secs

     total energy              =     -40.93420007 Ry
     estimated scf accuracy    <      39.21808216 Ry

     iteration #  2     ecut=    75.00 Ry     beta= 0.70
     Davidson diagonalization with overlap
     c_bands:  3 eigenvalues not converged
     c_bands:  1 eigenvalues not converged
     c_bands:  1 eigenvalues not converged
     c_bands:  1 eigenvalues not converged
     c_bands:  3 eigenvalues not converged
     c_bands:  3 eigenvalues not converged
     ethr =  1.00E-02,  avg # of iterations = 18.1

     total cpu time spent up to now is        6.8 secs

     total energy              =     -26.23600874 Ry
     estimated scf accuracy    <     131.47282724 Ry

     iteration #  3     ecut=    75.00 Ry     beta= 0.70
     Davidson diagonalization with overlap
     c_bands:  4 eigenvalues not converged
     c_bands:  1 eigenvalues not converged
     ethr =  1.00E-02,  avg # of iterations = 14.5

     total cpu time spent up to now is        9.9 secs

     total energy              =     -59.27399923 Ry
     estimated scf accuracy    <       9.57301305 Ry

     iteration #  4     ecut=    75.00 Ry     beta= 0.70
     Davidson diagonalization with overlap
     ethr =  1.00E-02,  avg # of iterations =  5.2

     total cpu time spent up to now is       10.9 secs

     total energy              =     -59.77339561 Ry
     estimated scf accuracy    <       2.11850625 Ry

     iteration #  5     ecut=    75.00 Ry     beta= 0.70
     Davidson diagonalization with overlap
     ethr =  6.62E-03,  avg # of iterations =  2.5

     total cpu time spent up to now is       11.8 secs

     total energy              =     -59.77158958 Ry
     estimated scf accuracy    <       1.49207248 Ry

     iteration #  6     ecut=    75.00 Ry     beta= 0.70
     Davidson diagonalization with overlap
     ethr =  4.66E-03,  avg # of iterations =  2.8

     total cpu time spent up to now is       12.6 secs

     total energy              =     -59.64723524 Ry
     estimated scf accuracy    <       1.29360602 Ry

     iteration #  7     ecut=    75.00 Ry     beta= 0.70
     Davidson diagonalization with overlap
     ethr =  4.04E-03,  avg # of iterations =  2.1

     total cpu time spent up to now is       13.4 secs

     total energy              =     -59.61897980 Ry
     estimated scf accuracy    <       0.47489731 Ry

     iteration #  8     ecut=    75.00 Ry     beta= 0.70
     Davidson diagonalization with overlap
     ethr =  1.48E-03,  avg # of iterations =  6.6

     total cpu time spent up to now is       14.8 secs

     total energy              =     -59.95304167 Ry
     estimated scf accuracy    <       0.20538645 Ry

     iteration #  9     ecut=    75.00 Ry     beta= 0.70
     Davidson diagonalization with overlap
     ethr =  6.42E-04,  avg # of iterations =  6.1

     total cpu time spent up to now is       16.1 secs

     total energy              =     -59.92871057 Ry
     estimated scf accuracy    <       0.34337019 Ry

     iteration # 10     ecut=    75.00 Ry     beta= 0.70
     Davidson diagonalization with overlap
     c_bands:  1 eigenvalues not converged
     ethr =  6.42E-04,  avg # of iterations =  4.2

     total cpu time spent up to now is       17.0 secs

     total energy              =     -59.87485456 Ry
     estimated scf accuracy    <       0.13647888 Ry

     iteration # 11     ecut=    75.00 Ry     beta= 0.70
     Davidson diagonalization with overlap
     c_bands:  1 eigenvalues not converged
     ethr =  4.26E-04,  avg # of iterations =  8.1

     negative rho (up, down):  2.891E-05 0.000E+00

     total cpu time spent up to now is       18.3 secs

     total energy              =     -59.89049296 Ry
     estimated scf accuracy    <       0.02337257 Ry

     iteration # 12     ecut=    75.00 Ry     beta= 0.70
     Davidson diagonalization with overlap
     c_bands:  1 eigenvalues not converged
     c_bands:  1 eigenvalues not converged
     c_bands:  2 eigenvalues not converged
     c_bands:  1 eigenvalues not converged
     c_bands:  2 eigenvalues not converged
     c_bands:  1 eigenvalues not converged
     c_bands:  1 eigenvalues not converged
     c_bands:  1 eigenvalues not converged
     ethr =  7.30E-05,  avg # of iterations = 14.9

     negative rho (up, down):  1.658E-04 0.000E+00

     total cpu time spent up to now is       20.5 secs

     total energy              =     -59.91056342 Ry
     estimated scf accuracy    <       0.03278488 Ry

     iteration # 13     ecut=    75.00 Ry     beta= 0.70
     Davidson diagonalization with overlap
     ethr =  7.30E-05,  avg # of iterations =  3.2

     negative rho (up, down):  5.588E-04 0.000E+00

     total cpu time spent up to now is       21.3 secs

     total energy              =     -59.91144979 Ry
     estimated scf accuracy    <       0.02961018 Ry

     iteration # 14     ecut=    75.00 Ry     beta= 0.70
     Davidson diagonalization with overlap
     ethr =  7.30E-05,  avg # of iterations =  1.2

     negative rho (up, down):  4.890E-04 0.000E+00

     total cpu time spent up to now is       22.0 secs

     total energy              =     -59.90863420 Ry
     estimated scf accuracy    <       0.02741183 Ry

     iteration # 15     ecut=    75.00 Ry     beta= 0.70
     Davidson diagonalization with overlap
     ethr =  7.30E-05,  avg # of iterations =  1.0

     negative rho (up, down):  4.849E-04 0.000E+00

     total cpu time spent up to now is       22.7 secs

     total energy              =     -59.90721675 Ry
     estimated scf accuracy    <       0.01832330 Ry

     iteration # 16     ecut=    75.00 Ry     beta= 0.70
     Davidson diagonalization with overlap
     ethr =  5.73E-05,  avg # of iterations =  1.1

     negative rho (up, down):  4.710E-04 0.000E+00

     total cpu time spent up to now is       23.4 secs

     total energy              =     -59.90700585 Ry
     estimated scf accuracy    <       0.01312530 Ry

     iteration # 17     ecut=    75.00 Ry     beta= 0.70
     Davidson diagonalization with overlap
     ethr =  4.10E-05,  avg # of iterations =  1.2

     negative rho (up, down):  5.389E-04 0.000E+00

     total cpu time spent up to now is       24.1 secs

     total energy              =     -59.89877578 Ry
     estimated scf accuracy    <       0.01136569 Ry

     iteration # 18     ecut=    75.00 Ry     beta= 0.70
     Davidson diagonalization with overlap
     c_bands:  1 eigenvalues not converged
     c_bands:  2 eigenvalues not converged
     c_bands:  2 eigenvalues not converged
     c_bands:  1 eigenvalues not converged
     c_bands:  1 eigenvalues not converged
     c_bands:  1 eigenvalues not converged
     c_bands:  1 eigenvalues not converged
     c_bands:  1 eigenvalues not converged
     c_bands:  1 eigenvalues not converged
     c_bands:  1 eigenvalues not converged
     ethr =  3.55E-05,  avg # of iterations = 15.5

     negative rho (up, down):  2.721E-04 0.000E+00

     total cpu time spent up to now is       26.4 secs

     total energy              =     -59.89419546 Ry
     estimated scf accuracy    <       0.05141924 Ry

     iteration # 19     ecut=    75.00 Ry     beta= 0.70
     Davidson diagonalization with overlap
     c_bands:  1 eigenvalues not converged
     ethr =  3.55E-05,  avg # of iterations = 10.3

     negative rho (up, down):  3.983E-04 0.000E+00

     total cpu time spent up to now is       28.0 secs

     total energy              =     -59.90529579 Ry
     estimated scf accuracy    <       0.00005944 Ry

     iteration # 20     ecut=    75.00 Ry     beta= 0.70
     Davidson diagonalization with overlap
     c_bands:  1 eigenvalues not converged
     c_bands:  1 eigenvalues not converged
     c_bands:  1 eigenvalues not converged
     c_bands:  3 eigenvalues not converged
     c_bands:  1 eigenvalues not converged
     c_bands:  1 eigenvalues not converged
     c_bands:  2 eigenvalues not converged
     c_bands:  1 eigenvalues not converged
     c_bands:  1 eigenvalues not converged
     c_bands:  1 eigenvalues not converged
     c_bands:  1 eigenvalues not converged
     c_bands:  2 eigenvalues not converged
     c_bands:  1 eigenvalues not converged
     ethr =  1.86E-07,  avg # of iterations = 21.3

     negative rho (up, down):  3.698E-04 0.000E+00

     total cpu time spent up to now is       33.1 secs

     total energy              =     -59.90606480 Ry
     estimated scf accuracy    <       0.00023164 Ry

     iteration # 21     ecut=    75.00 Ry     beta= 0.70
     Davidson diagonalization with overlap
     ethr =  1.86E-07,  avg # of iterations =  4.8

     negative rho (up, down):  3.813E-04 0.000E+00

     total cpu time spent up to now is       34.0 secs

     total energy              =     -59.90605075 Ry
     estimated scf accuracy    <       0.00004493 Ry

     iteration # 22     ecut=    75.00 Ry     beta= 0.70
     Davidson diagonalization with overlap
     ethr =  1.40E-07,  avg # of iterations =  7.0

     negative rho (up, down):  3.859E-04 0.000E+00

     total cpu time spent up to now is       35.6 secs

     total energy              =     -59.90608471 Ry
     estimated scf accuracy    <       0.00002632 Ry

     iteration # 23     ecut=    75.00 Ry     beta= 0.70
     Davidson diagonalization with overlap
     ethr =  8.22E-08,  avg # of iterations =  2.0

     negative rho (up, down):  3.854E-04 0.000E+00

     total cpu time spent up to now is       36.4 secs

     total energy              =     -59.90608400 Ry
     estimated scf accuracy    <       0.00000833 Ry

     iteration # 24     ecut=    75.00 Ry     beta= 0.70
     Davidson diagonalization with overlap
     ethr =  2.60E-08,  avg # of iterations =  5.0

     negative rho (up, down):  3.846E-04 0.000E+00

     total cpu time spent up to now is       37.5 secs

     total energy              =     -59.90608711 Ry
     estimated scf accuracy    <       0.00000088 Ry

     iteration # 25     ecut=    75.00 Ry     beta= 0.70
     Davidson diagonalization with overlap
     ethr =  2.76E-09,  avg # of iterations = 10.5

     negative rho (up, down):  3.846E-04 0.000E+00

     total cpu time spent up to now is       39.8 secs

     total energy              =     -59.90608870 Ry
     estimated scf accuracy    <       0.00000064 Ry

     iteration # 26     ecut=    75.00 Ry     beta= 0.70
     Davidson diagonalization with overlap
     ethr =  2.00E-09,  avg # of iterations =  2.3

     negative rho (up, down):  3.844E-04 0.000E+00

     total cpu time spent up to now is       40.6 secs

     total energy              =     -59.90608864 Ry
     estimated scf accuracy    <       0.00000039 Ry

     iteration # 27     ecut=    75.00 Ry     beta= 0.70
     Davidson diagonalization with overlap
     ethr =  1.21E-09,  avg # of iterations =  2.8

     negative rho (up, down):  3.842E-04 0.000E+00

     total cpu time spent up to now is       41.5 secs

     total energy              =     -59.90608858 Ry
     estimated scf accuracy    <       0.00000020 Ry

     iteration # 28     ecut=    75.00 Ry     beta= 0.70
     Davidson diagonalization with overlap
     ethr =  6.25E-10,  avg # of iterations =  6.2

     negative rho (up, down):  3.840E-04 0.000E+00

     total cpu time spent up to now is       42.8 secs

     total energy              =     -59.90608870 Ry
     estimated scf accuracy    <       0.00000004 Ry

     iteration # 29     ecut=    75.00 Ry     beta= 0.70
     Davidson diagonalization with overlap
     ethr =  1.38E-10,  avg # of iterations =  5.9

     negative rho (up, down):  3.840E-04 0.000E+00

     total cpu time spent up to now is       44.2 secs

     total energy              =     -59.90608872 Ry
     estimated scf accuracy    <       0.00000002 Ry

     iteration # 30     ecut=    75.00 Ry     beta= 0.70
     Davidson diagonalization with overlap
     ethr =  7.22E-11,  avg # of iterations =  5.1

     negative rho (up, down):  3.839E-04 0.000E+00

     total cpu time spent up to now is       45.2 secs

     End of self-consistent calculation

          k = 0.0000 0.0000 0.0000 (  5827 PWs)   bands (ev):

   -35.9649 -30.8412 -30.8412 -24.9696 -16.6417 -16.6417 -16.3607 -11.9334
   -11.9334  -8.7772  -6.7336  -5.6460  -0.6420  -0.6420   2.4231   4.2918
     8.0475   8.2542   9.4573  10.8577

          k = 0.0000 0.0962 0.0000 (  5879 PWs)   bands (ev):

   -36.1381 -31.0826 -30.6977 -24.8742 -16.5905 -16.2360 -16.0649 -12.4194
   -12.2161  -8.2882  -6.4798  -5.8475  -0.8300  -0.0588   2.9056   4.4735
     8.2578   8.4415   9.6239  10.0892

          k = 0.0000 0.1925 0.0000 (  5881 PWs)   bands (ev):

   -36.5615 -31.6779 -30.3756 -24.5679 -16.3591 -15.9059 -14.5596 -13.5460
   -12.7987  -7.0780  -6.5015  -5.7489  -0.9899   1.4503   3.4909   4.9641
     6.8769   8.8870   8.9827  10.0053

          k = 0.0000 0.2887 0.0000 (  5891 PWs)   bands (ev):

   -37.0578 -32.3787 -30.0640 -24.0107 -16.2108 -15.5704 -14.3005 -14.0001
   -11.7921  -7.3639  -5.8941  -4.7032  -1.0104   3.1019   3.3400   4.2820
     5.9272   8.5853   9.9234  10.1547

          k = 0.0000 0.3849 0.0000 (  5869 PWs)   bands (ev):

   -37.4906 -32.9878 -29.8626 -23.1945 -17.4227 -14.7648 -14.5784 -13.6181
    -9.1260  -8.4178  -5.2772  -3.9497  -1.2193   2.1710   3.6073   4.8135
     7.0688   7.3735   8.5728  10.2927

          k = 0.0000 0.4811 0.0000 (  5815 PWs)   bands (ev):

   -37.7785 -33.3901 -29.7683 -22.1941 -18.8771 -14.9998 -13.8760 -12.3297
    -9.5863  -6.4942  -5.0619  -4.9101  -0.7288   1.8596   3.9054   4.8807
     6.2713   6.5402   8.6268  11.3083

          k = 0.0000-0.5774 0.0000 (  5814 PWs)   bands (ev):

   -37.8788 -33.5297 -29.7429 -21.4899 -19.7459 -15.1474 -13.4574 -11.1139
   -10.6493  -5.8319  -5.1949  -4.8538  -0.3500   1.7656   4.0334   4.1085
     5.9343   6.1864   9.5486  11.9775

          k = 0.0833 0.1443 0.0000 (  5871 PWs)   bands (ev):

   -36.4304 -31.5570 -30.4046 -24.6753 -16.4901 -16.0066 -14.9744 -13.1514
   -12.7375  -7.4374  -6.2131  -6.0321  -0.9707   0.9579   3.4109   4.8041
     7.6781   8.6999   8.8023  10.0620

          k = 0.0833 0.2406 0.0000 (  5868 PWs)   bands (ev):

   -36.8637 -32.3138 -29.9589 -24.2511 -16.2480 -15.6733 -14.2057 -13.9688
   -12.4575  -6.8829  -6.2418  -5.1410  -0.9977   2.5500   3.4270   4.9171
     5.4141   8.7685   9.5009   9.5387

          k = 0.0833 0.3368 0.0000 (  5851 PWs)   bands (ev):

   -37.2867 -33.0726 -29.5709 -23.5699 -16.6944 -15.4410 -14.4188 -14.2121
   -10.0156  -7.7641  -5.3995  -3.9945  -1.1832   2.2876   3.6819   4.1473
     6.1552   7.7950  10.3400  10.5833

          k = 0.0833 0.4330 0.0000 (  5827 PWs)   bands (ev):

   -37.6066 -33.6566 -29.3262 -22.6475 -18.1219 -15.4012 -14.1154 -13.2374
    -9.1044  -7.0296  -4.9082  -4.1845  -1.2138   1.8888   3.4677   5.1913
     6.3282   6.9813   8.9900  10.8484

          k = 0.0833 0.5292 0.0000 (  5816 PWs)   bands (ev):

   -37.7762 -33.9696 -29.2175 -21.6543 -19.4337 -15.6016 -13.5090 -11.8573
   -10.3725  -5.6097  -4.6770  -4.6420  -0.5722   1.8737   3.6067   4.4329
     5.7970   6.7678   9.6231  10.9221

          k = 0.1667 0.2887 0.0000 (  5853 PWs)   bands (ev):

   -37.1792 -33.2438 -29.2904 -23.7145 -16.3003 -15.7957 -14.6487 -14.3679
   -10.1914  -7.4238  -5.4241  -4.0670  -1.1488   2.2604   3.6498   3.9063
     5.5885   7.9935  10.4414  10.5789

          k = 0.1667 0.3849 0.0000 (  5823 PWs)   bands (ev):

   -37.4083 -34.1147 -28.6844 -22.9322 -17.2565 -16.3357 -14.3291 -13.9186
    -8.7965  -6.9468  -4.7202  -3.4144  -1.7778   1.6623   3.4452   4.4853
     6.0898   7.3173  10.6173  11.7632

          k = 0.1667 0.4811 0.0000 (  5806 PWs)   bands (ev):

   -37.5248 -34.7257 -28.2963 -21.9370 -18.7091 -16.6059 -13.5900 -13.0590
    -9.9180  -5.2875  -4.2407  -3.7012  -1.1494   2.0082   3.1977   5.1194
     5.5304   7.1448  10.3122  10.5590

          k = 0.1667 0.5774 0.0000 (  5806 PWs)   bands (ev):

   -37.5557 -34.9472 -28.1668 -21.1935 -19.6211 -16.7077 -13.2851 -12.0830
   -11.0019  -5.4536  -4.0720  -3.3159   0.0527   2.1851   3.1582   4.1115
     5.2893   8.0480   9.1550  11.1339

          k = 0.2500 0.4330 0.0000 (  5808 PWs)   bands (ev):

   -37.3601 -35.0945 -27.8581 -22.0739 -17.9698 -17.4768 -13.7382 -13.4668
    -9.7335  -5.1281  -4.0009  -3.2084  -1.5600   1.9984   3.2198   4.6775
     6.0704   7.1842  10.8007  11.4721

          k = 0.2500 0.5292 0.0000 (  5811 PWs)   bands (ev):

   -37.1954 -35.7612 -27.3759 -21.0574 -19.2503 -17.7876 -13.1615 -12.7851
   -11.0295  -4.9678  -3.6023  -3.4938   1.1991   2.6377   3.0809   4.4054
     5.2638   7.9907   9.4024   9.8082

          k = 0.3333 0.5774 0.0000 (  5808 PWs)   bands (ev):

   -36.6030 -36.6030 -27.0046 -20.0603 -20.0603 -18.2934 -13.0219 -12.0874
   -12.0873  -4.3717  -4.3716  -3.2065   2.7211   3.4673   3.4673   5.0687
     5.0687   6.0071   8.2887  10.5433

     the Fermi energy is     5.2220 ev

!    total energy              =     -59.90608872 Ry
     estimated scf accuracy    <          7.2E-09 Ry
     smearing contrib. (-TS)   =      -0.00045708 Ry
     internal energy E=F+TS    =     -59.90563164 Ry

     The total energy is F=E-TS. E is the sum of the following terms:
     one-electron contribution =   -2245.93732667 Ry
     hartree contribution      =    1134.17274699 Ry
     xc contribution           =     -45.03567286 Ry
     ewald contribution        =    1096.89462090 Ry

     convergence has been achieved in  30 iterations

     negative rho (up, down):  3.839E-04 0.000E+00

     Forces acting on atoms (cartesian axes, Ry/au):

     atom    1 type  1   force =     0.00000000   -0.00000000  -22.34269523
     atom    2 type  1   force =     0.00000000    0.00000000   -2.71610026
     atom    3 type  1   force =     0.00000000    0.00000000   -2.19483048
     atom    4 type  1   force =     0.00000000    0.00000000    3.69490852
     atom    5 type  1   force =     0.00000000    0.00000000   -3.69493504
     atom    6 type  1   force =     0.00000000    0.00000000    2.19483472
     atom    7 type  1   force =     0.00000000   -0.00000000    2.71607974
     atom    8 type  1   force =     0.00000000    0.00000000   22.34273803

     Total force =    32.405057     Total SCF correction =     0.000184


     Computing stress (Cartesian axis) and pressure


     negative rho (up, down):  3.839E-04 0.000E+00
          total   stress  (Ry/bohr**3)                   (kbar)     P=     9029.40
   0.02668711   0.00000000   0.00000000         3925.81        0.00        0.00
   0.00000000   0.02668711   0.00000000            0.00     3925.81        0.00
   0.00000000   0.00000000   0.13076766            0.00        0.00    19236.59


     Writing all to output data dir /run/media/rfa/SATA/Skripsi/DFT/Graphene-copy/tmp/gr-ab-4L.save/ :
     XML data file, charge density, pseudopotentials, collected wavefunctions

     init_run     :      0.81s CPU      0.82s WALL (       1 calls)
     electrons    :     81.90s CPU     44.34s WALL (       1 calls)
     forces       :      0.34s CPU      0.19s WALL (       1 calls)
     stress       :      1.24s CPU      0.68s WALL (       1 calls)

     Called by init_run:
     wfcinit      :      0.56s CPU      0.37s WALL (       1 calls)
     potinit      :      0.01s CPU      0.01s WALL (       1 calls)
     hinit0       :      0.20s CPU      0.39s WALL (       1 calls)

     Called by electrons:
     c_bands      :     73.81s CPU     39.74s WALL (      30 calls)
     sum_band     :      7.18s CPU      3.82s WALL (      30 calls)
     v_of_rho     :      0.26s CPU      0.28s WALL (      31 calls)
     newd         :      0.34s CPU      0.30s WALL (      31 calls)
     mix_rho      :      0.27s CPU      0.18s WALL (      30 calls)

     Called by c_bands:
     init_us_2    :      2.25s CPU      1.14s WALL (    1197 calls)
     cegterg      :     70.86s CPU     38.17s WALL (     575 calls)

     Called by *egterg:
     cdiaghg      :      5.09s CPU      2.60s WALL (    4414 calls)
     h_psi        :     44.80s CPU     24.97s WALL (    4433 calls)
     s_psi        :      5.24s CPU      2.66s WALL (    4433 calls)
     g_psi        :      0.51s CPU      0.27s WALL (    3839 calls)

     Called by h_psi:
     h_psi:calbec :      7.66s CPU      4.11s WALL (    4433 calls)
     vloc_psi     :     30.91s CPU     17.64s WALL (    4433 calls)
     add_vuspsi   :      5.51s CPU      2.82s WALL (    4433 calls)

     General routines
     calbec       :      9.35s CPU      4.97s WALL (    5326 calls)
     fft          :      0.29s CPU      0.48s WALL (     366 calls)
     ffts         :      0.02s CPU      0.01s WALL (      30 calls)
     fftw         :     28.73s CPU     16.46s WALL (  106486 calls)

     Parallel routines

     PWSCF        :   1m24.42s CPU     46.63s WALL


   This run was terminated on:  15:19:22  16Apr2025            

=------------------------------------------------------------------------------=
   JOB DONE.
=------------------------------------------------------------------------------=
