
     Program PWSCF v.7.4.1 starts on 16Apr2025 at 15:14:20 

     This program is part of the open-source Quantum ESPRESSO suite
     for quantum simulation of materials; please cite
         "P. Giannozzi et al., J. Phys.:Condens. Matter 21 395502 (2009);
         "P. Giannozzi et al., J. Phys.:Condens. Matter 29 465901 (2017);
         "P. Giannozzi et al., J. Chem. Phys. 152 154105 (2020);
          URL http://www.quantum-espresso.org", 
     in publications or presentations arising from this work. More details at
     http://www.quantum-espresso.org/quote

     Parallel version (MPI), running on     7 processors

     MPI processes distributed on     1 nodes
     14754 MiB available memory on the printing compute node when the environment starts

     Waiting for input...
     Reading input from standard input

     Current dimensions of program PWSCF are:
     Max number of different atomic species (ntypx) = 10
     Max number of k-points (npk) =  40000
     Max angular momentum in pseudopotentials (lmaxx) =  4

     R & G space division:  proc/nbgrp/npool/nimage =       7
     Subspace diagonalization in iterative solution of the eigenvalue problem:
     a serial algorithm will be used


     Parallelization info
     --------------------
     sticks:   dense  smooth     PW     G-vecs:    dense   smooth      PW
     Min          34      34     11                 2594     2594     484
     Max          35      35     13                 2609     2609     493
     Sum         241     241     85                18211    18211    3425

     Using Slab Decomposition



     bravais-lattice index     =            4
     lattice parameter (alat)  =       4.6561  a.u.
     unit-cell volume          =     532.1899 (a.u.)^3
     number of atoms/cell      =            8
     number of atomic types    =            1
     number of electrons       =        32.00
     number of Kohn-Sham states=           20
     kinetic-energy cutoff     =      40.0000  Ry
     charge density cutoff     =     160.0000  Ry
     scf convergence threshold =      1.0E-08
     mixing beta               =       0.7000
     number of iterations used =            8  plain     mixing
     Exchange-correlation= PBE
                           (   1   4   3   4   0   0   0)

     celldm(1)=   4.656107  celldm(2)=   0.000000  celldm(3)=   6.087896
     celldm(4)=   0.000000  celldm(5)=   0.000000  celldm(6)=   0.000000

     crystal axes: (cart. coord. in units of alat)
               a(1) = (   1.000000   0.000000   0.000000 )  
               a(2) = (  -0.500000   0.866025   0.000000 )  
               a(3) = (   0.000000   0.000000   6.087896 )  

     reciprocal axes: (cart. coord. in units 2 pi/alat)
               b(1) = (  1.000000  0.577350 -0.000000 )  
               b(2) = (  0.000000  1.154701  0.000000 )  
               b(3) = (  0.000000 -0.000000  0.164260 )  


     PseudoPot. # 1 for C  read from file:
     /run/media/rfa/SATA/Skripsi/DFT/Graphene-copy/pseudo/C.pbe-n-rrkjus_psl.0.1.UPF
     MD5 check sum: 96a6a315177d77e6c95bf6fd3870f9e3
     Pseudo is Ultrasoft + core correction, Zval =  4.0
     Generated using &quot;atomic&quot; code by A. Dal Corso  v.6.3MaX
     Using radial grid of 1073 points,  4 beta functions with: 
                l(1) =   0
                l(2) =   0
                l(3) =   1
                l(4) =   1
     Q(r) pseudized with 0 coefficients 


     atomic species   valence    mass     pseudopotential
     C                 4.00    12.01070     C ( 1.00)

      6 Sym. Ops. (no inversion) found



   Cartesian axes

     site n.     atom                  positions (alat units)
         1        C      tau(   1) = (   0.0000000   0.5773503   3.0439478  )
         2        C      tau(   2) = (   0.5000000   0.2886751   3.0439478  )
         3        C      tau(   3) = (   0.0000000   0.0000000   3.2468777  )
         4        C      tau(   4) = (   0.0000000   0.5773503   3.2468777  )
         5        C      tau(   5) = (   0.0000000   0.5773503   3.4498075  )
         6        C      tau(   6) = (   0.5000000   0.2886751   3.4498075  )
         7        C      tau(   7) = (   0.0000000   0.0000000   3.6527374  )
         8        C      tau(   8) = (   0.0000000   0.5773503   3.6527374  )

     number of k points=    19  Marzari-Vanderbilt smearing, width (Ry)=  0.0200
                       cart. coord. in units 2pi/alat
        k(    1) = (   0.0000000   0.0000000   0.0000000), wk =   0.0138889
        k(    2) = (   0.0000000   0.0962250   0.0000000), wk =   0.0833333
        k(    3) = (   0.0000000   0.1924501   0.0000000), wk =   0.0833333
        k(    4) = (   0.0000000   0.2886751   0.0000000), wk =   0.0833333
        k(    5) = (   0.0000000   0.3849002   0.0000000), wk =   0.0833333
        k(    6) = (   0.0000000   0.4811252   0.0000000), wk =   0.0833333
        k(    7) = (   0.0000000  -0.5773503   0.0000000), wk =   0.0416667
        k(    8) = (   0.0833333   0.1443376   0.0000000), wk =   0.0833333
        k(    9) = (   0.0833333   0.2405626   0.0000000), wk =   0.1666667
        k(   10) = (   0.0833333   0.3367877   0.0000000), wk =   0.1666667
        k(   11) = (   0.0833333   0.4330127   0.0000000), wk =   0.1666667
        k(   12) = (   0.0833333   0.5292377   0.0000000), wk =   0.1666667
        k(   13) = (   0.1666667   0.2886751   0.0000000), wk =   0.0833333
        k(   14) = (   0.1666667   0.3849002   0.0000000), wk =   0.1666667
        k(   15) = (   0.1666667   0.4811252   0.0000000), wk =   0.1666667
        k(   16) = (   0.1666667   0.5773503   0.0000000), wk =   0.0833333
        k(   17) = (   0.2500000   0.4330127   0.0000000), wk =   0.0833333
        k(   18) = (   0.2500000   0.5292377   0.0000000), wk =   0.1666667
        k(   19) = (   0.3333333   0.5773503   0.0000000), wk =   0.0277778

     Dense  grid:    18211 G-vectors     FFT dimensions: (  20,  20, 120)

     Estimated max dynamical RAM per process >       6.76 MB

     Estimated total dynamical RAM >      47.33 MB

     Check: negative core charge=   -0.000024

     Initial potential from superposition of free atoms

     starting charge      31.9997, renormalised to      32.0000

     negative rho (up, down):  1.340E-04 0.000E+00
     Starting wfcs are   32 randomized atomic wfcs

     total cpu time spent up to now is        0.9 secs

     per-process dynamical memory:    11.3 Mb

     Self-consistent Calculation

     iteration #  1     ecut=    40.00 Ry     beta= 0.70
     Davidson diagonalization with overlap
     ethr =  1.00E-02,  avg # of iterations =  9.2

     negative rho (up, down):  1.063E-02 0.000E+00

     total cpu time spent up to now is        1.7 secs

     total energy              =     -44.37039347 Ry
     estimated scf accuracy    <      32.91455033 Ry

     iteration #  2     ecut=    40.00 Ry     beta= 0.70
     Davidson diagonalization with overlap
     c_bands:  1 eigenvalues not converged
     c_bands:  2 eigenvalues not converged
     ethr =  1.00E-02,  avg # of iterations = 16.7

     total cpu time spent up to now is        3.0 secs

     total energy              =     -22.82515611 Ry
     estimated scf accuracy    <     144.02167863 Ry

     iteration #  3     ecut=    40.00 Ry     beta= 0.70
     Davidson diagonalization with overlap
     c_bands:  1 eigenvalues not converged
     c_bands:  1 eigenvalues not converged
     c_bands:  1 eigenvalues not converged
     ethr =  1.00E-02,  avg # of iterations = 13.9

     total cpu time spent up to now is        4.1 secs

     total energy              =     -59.14514240 Ry
     estimated scf accuracy    <       8.22829235 Ry

     iteration #  4     ecut=    40.00 Ry     beta= 0.70
     Davidson diagonalization with overlap
     ethr =  1.00E-02,  avg # of iterations =  5.3

     total cpu time spent up to now is        4.5 secs

     total energy              =     -59.84987873 Ry
     estimated scf accuracy    <       2.21938740 Ry

     iteration #  5     ecut=    40.00 Ry     beta= 0.70
     Davidson diagonalization with overlap
     ethr =  6.94E-03,  avg # of iterations =  2.2

     total cpu time spent up to now is        4.8 secs

     total energy              =     -59.42820100 Ry
     estimated scf accuracy    <       1.54591020 Ry

     iteration #  6     ecut=    40.00 Ry     beta= 0.70
     Davidson diagonalization with overlap
     ethr =  4.83E-03,  avg # of iterations =  1.9

     total cpu time spent up to now is        5.1 secs

     total energy              =     -59.44000520 Ry
     estimated scf accuracy    <       0.73742842 Ry

     iteration #  7     ecut=    40.00 Ry     beta= 0.70
     Davidson diagonalization with overlap
     ethr =  2.30E-03,  avg # of iterations =  3.7

     total cpu time spent up to now is        5.4 secs

     total energy              =     -59.49345423 Ry
     estimated scf accuracy    <       0.55343086 Ry

     iteration #  8     ecut=    40.00 Ry     beta= 0.70
     Davidson diagonalization with overlap
     ethr =  1.73E-03,  avg # of iterations =  2.4

     total cpu time spent up to now is        5.7 secs

     total energy              =     -59.43484189 Ry
     estimated scf accuracy    <       0.45476420 Ry

     iteration #  9     ecut=    40.00 Ry     beta= 0.70
     Davidson diagonalization with overlap
     ethr =  1.42E-03,  avg # of iterations =  2.4

     negative rho (up, down):  7.511E-05 0.000E+00

     total cpu time spent up to now is        6.0 secs

     total energy              =     -59.25478883 Ry
     estimated scf accuracy    <       0.29032512 Ry

     iteration # 10     ecut=    40.00 Ry     beta= 0.70
     Davidson diagonalization with overlap
     c_bands:  1 eigenvalues not converged
     ethr =  9.07E-04,  avg # of iterations =  8.5

     negative rho (up, down):  2.132E-03 0.000E+00

     total cpu time spent up to now is        6.6 secs

     total energy              =     -59.36635754 Ry
     estimated scf accuracy    <       0.02593632 Ry

     iteration # 11     ecut=    40.00 Ry     beta= 0.70
     Davidson diagonalization with overlap
     c_bands:  1 eigenvalues not converged
     c_bands:  1 eigenvalues not converged
     c_bands:  1 eigenvalues not converged
     c_bands:  2 eigenvalues not converged
     c_bands:  2 eigenvalues not converged
     c_bands:  2 eigenvalues not converged
     c_bands:  1 eigenvalues not converged
     ethr =  8.11E-05,  avg # of iterations = 15.5

     negative rho (up, down):  1.263E-02 0.000E+00

     total cpu time spent up to now is        7.5 secs

     total energy              =     -59.41170047 Ry
     estimated scf accuracy    <       0.08667678 Ry

     iteration # 12     ecut=    40.00 Ry     beta= 0.70
     Davidson diagonalization with overlap
     ethr =  8.11E-05,  avg # of iterations =  9.4

     total cpu time spent up to now is        8.0 secs

     total energy              =     -59.26792122 Ry
     estimated scf accuracy    <       0.40773488 Ry

     iteration # 13     ecut=    40.00 Ry     beta= 0.70
     Davidson diagonalization with overlap
     c_bands:  3 eigenvalues not converged
     c_bands:  1 eigenvalues not converged
     c_bands:  1 eigenvalues not converged
     c_bands:  1 eigenvalues not converged
     c_bands:  1 eigenvalues not converged
     c_bands:  2 eigenvalues not converged
     c_bands:  1 eigenvalues not converged
     c_bands:  1 eigenvalues not converged
     c_bands:  1 eigenvalues not converged
     c_bands:  1 eigenvalues not converged
     ethr =  8.11E-05,  avg # of iterations = 14.4

     negative rho (up, down):  5.318E-07 0.000E+00

     total cpu time spent up to now is        8.8 secs

     total energy              =     -59.39775130 Ry
     estimated scf accuracy    <       0.03611500 Ry

     iteration # 14     ecut=    40.00 Ry     beta= 0.70
     Davidson diagonalization with overlap
     c_bands:  1 eigenvalues not converged
     ethr =  8.11E-05,  avg # of iterations =  5.6

     negative rho (up, down):  4.668E-07 0.000E+00

     total cpu time spent up to now is        9.2 secs

     total energy              =     -59.39904624 Ry
     estimated scf accuracy    <       0.03435058 Ry

     iteration # 15     ecut=    40.00 Ry     beta= 0.70
     Davidson diagonalization with overlap
     ethr =  8.11E-05,  avg # of iterations =  1.3

     total cpu time spent up to now is        9.4 secs

     total energy              =     -59.46111471 Ry
     estimated scf accuracy    <       0.03412856 Ry

     iteration # 16     ecut=    40.00 Ry     beta= 0.70
     Davidson diagonalization with overlap
     c_bands:  1 eigenvalues not converged
     c_bands:  3 eigenvalues not converged
     c_bands:  1 eigenvalues not converged
     c_bands:  1 eigenvalues not converged
     c_bands:  1 eigenvalues not converged
     c_bands:  1 eigenvalues not converged
     c_bands:  2 eigenvalues not converged
     c_bands:  1 eigenvalues not converged
     ethr =  8.11E-05,  avg # of iterations = 11.2

     negative rho (up, down):  1.770E-06 0.000E+00

     total cpu time spent up to now is       10.1 secs

     total energy              =     -59.42546676 Ry
     estimated scf accuracy    <       0.12919839 Ry

     iteration # 17     ecut=    40.00 Ry     beta= 0.70
     Davidson diagonalization with overlap
     ethr =  8.11E-05,  avg # of iterations =  5.2

     total cpu time spent up to now is       10.4 secs

     total energy              =     -59.44450345 Ry
     estimated scf accuracy    <       0.07094219 Ry

     iteration # 18     ecut=    40.00 Ry     beta= 0.70
     Davidson diagonalization with overlap
     ethr =  8.11E-05,  avg # of iterations =  1.6

     negative rho (up, down):  6.745E-08 0.000E+00

     total cpu time spent up to now is       10.7 secs

     total energy              =     -59.44097788 Ry
     estimated scf accuracy    <       0.09065404 Ry

     iteration # 19     ecut=    40.00 Ry     beta= 0.70
     Davidson diagonalization with overlap
     ethr =  8.11E-05,  avg # of iterations =  1.0

     total cpu time spent up to now is       11.0 secs

     total energy              =     -59.45572621 Ry
     estimated scf accuracy    <       0.08494937 Ry

     iteration # 20     ecut=    40.00 Ry     beta= 0.70
     Davidson diagonalization with overlap
     ethr =  8.11E-05,  avg # of iterations =  3.1

     negative rho (up, down):  1.327E-06 0.000E+00

     total cpu time spent up to now is       11.3 secs

     total energy              =     -59.39932995 Ry
     estimated scf accuracy    <       0.11520992 Ry

     iteration # 21     ecut=    40.00 Ry     beta= 0.70
     Davidson diagonalization with overlap
     c_bands:  1 eigenvalues not converged
     ethr =  8.11E-05,  avg # of iterations =  5.2

     negative rho (up, down):  9.726E-03 0.000E+00

     total cpu time spent up to now is       11.7 secs

     total energy              =     -59.36879061 Ry
     estimated scf accuracy    <       0.04285821 Ry

     iteration # 22     ecut=    40.00 Ry     beta= 0.70
     Davidson diagonalization with overlap
     c_bands:  1 eigenvalues not converged
     c_bands:  1 eigenvalues not converged
     c_bands:  1 eigenvalues not converged
     ethr =  8.11E-05,  avg # of iterations = 10.8

     negative rho (up, down):  6.757E-03 0.000E+00

     total cpu time spent up to now is       12.3 secs

     total energy              =     -59.37729397 Ry
     estimated scf accuracy    <       0.03124159 Ry

     iteration # 23     ecut=    40.00 Ry     beta= 0.70
     Davidson diagonalization with overlap
     ethr =  8.11E-05,  avg # of iterations =  2.4

     negative rho (up, down):  9.749E-03 0.000E+00

     total cpu time spent up to now is       12.6 secs

     total energy              =     -59.37682877 Ry
     estimated scf accuracy    <       0.00570341 Ry

     iteration # 24     ecut=    40.00 Ry     beta= 0.70
     Davidson diagonalization with overlap
     c_bands:  2 eigenvalues not converged
     c_bands:  1 eigenvalues not converged
     ethr =  1.78E-05,  avg # of iterations =  7.7

     negative rho (up, down):  8.799E-03 0.000E+00

     total cpu time spent up to now is       13.1 secs

     total energy              =     -59.37904303 Ry
     estimated scf accuracy    <       0.00044858 Ry

     iteration # 25     ecut=    40.00 Ry     beta= 0.70
     Davidson diagonalization with overlap
     c_bands:  2 eigenvalues not converged
     ethr =  1.40E-06,  avg # of iterations = 10.7

     negative rho (up, down):  8.793E-03 0.000E+00

     total cpu time spent up to now is       13.8 secs

     total energy              =     -59.37905981 Ry
     estimated scf accuracy    <       0.00048302 Ry

     iteration # 26     ecut=    40.00 Ry     beta= 0.70
     Davidson diagonalization with overlap
     c_bands:  2 eigenvalues not converged
     ethr =  1.40E-06,  avg # of iterations =  4.9

     negative rho (up, down):  8.856E-03 0.000E+00

     total cpu time spent up to now is       14.2 secs

     total energy              =     -59.37918656 Ry
     estimated scf accuracy    <       0.00000277 Ry

     iteration # 27     ecut=    40.00 Ry     beta= 0.70
     Davidson diagonalization with overlap
     c_bands:  2 eigenvalues not converged
     ethr =  8.64E-09,  avg # of iterations = 15.9

     negative rho (up, down):  8.860E-03 0.000E+00

     total cpu time spent up to now is       15.6 secs

     total energy              =     -59.37920755 Ry
     estimated scf accuracy    <       0.00003041 Ry

     iteration # 28     ecut=    40.00 Ry     beta= 0.70
     Davidson diagonalization with overlap
     ethr =  8.64E-09,  avg # of iterations =  6.4

     negative rho (up, down):  8.850E-03 0.000E+00

     total cpu time spent up to now is       16.2 secs

     total energy              =     -59.37921267 Ry
     estimated scf accuracy    <       0.00000169 Ry

     iteration # 29     ecut=    40.00 Ry     beta= 0.70
     Davidson diagonalization with overlap
     ethr =  5.29E-09,  avg # of iterations =  2.2

     negative rho (up, down):  8.869E-03 0.000E+00

     total cpu time spent up to now is       16.5 secs

     total energy              =     -59.37921200 Ry
     estimated scf accuracy    <       0.00000248 Ry

     iteration # 30     ecut=    40.00 Ry     beta= 0.70
     Davidson diagonalization with overlap
     ethr =  5.29E-09,  avg # of iterations =  2.4

     negative rho (up, down):  8.875E-03 0.000E+00

     total cpu time spent up to now is       16.8 secs

     total energy              =     -59.37921227 Ry
     estimated scf accuracy    <       0.00000016 Ry

     iteration # 31     ecut=    40.00 Ry     beta= 0.70
     Davidson diagonalization with overlap
     ethr =  5.08E-10,  avg # of iterations =  9.7

     negative rho (up, down):  8.876E-03 0.000E+00

     total cpu time spent up to now is       17.7 secs

     total energy              =     -59.37921265 Ry
     estimated scf accuracy    <       0.00000037 Ry

     iteration # 32     ecut=    40.00 Ry     beta= 0.70
     Davidson diagonalization with overlap
     ethr =  5.08E-10,  avg # of iterations =  1.3

     negative rho (up, down):  8.874E-03 0.000E+00

     total cpu time spent up to now is       17.9 secs

     total energy              =     -59.37921260 Ry
     estimated scf accuracy    <       0.00000028 Ry

     iteration # 33     ecut=    40.00 Ry     beta= 0.70
     Davidson diagonalization with overlap
     ethr =  5.08E-10,  avg # of iterations =  1.9

     negative rho (up, down):  8.871E-03 0.000E+00

     total cpu time spent up to now is       18.2 secs

     total energy              =     -59.37921255 Ry
     estimated scf accuracy    <       0.00000012 Ry

     iteration # 34     ecut=    40.00 Ry     beta= 0.70
     Davidson diagonalization with overlap
     ethr =  3.85E-10,  avg # of iterations =  5.0

     negative rho (up, down):  8.872E-03 0.000E+00

     total cpu time spent up to now is       18.7 secs

     total energy              =     -59.37921259 Ry
     estimated scf accuracy    <       0.00000003 Ry

     iteration # 35     ecut=    40.00 Ry     beta= 0.70
     Davidson diagonalization with overlap
     ethr =  9.94E-11,  avg # of iterations =  5.7

     negative rho (up, down):  8.874E-03 0.000E+00

     total cpu time spent up to now is       19.2 secs

     total energy              =     -59.37921257 Ry
     estimated scf accuracy    <       0.00000007 Ry

     iteration # 36     ecut=    40.00 Ry     beta= 0.70
     Davidson diagonalization with overlap
     ethr =  9.94E-11,  avg # of iterations =  4.4

     negative rho (up, down):  8.875E-03 0.000E+00

     total cpu time spent up to now is       19.6 secs

     End of self-consistent calculation

          k = 0.0000 0.0000 0.0000 (  2289 PWs)   bands (ev):

   -35.7999 -31.1462 -31.1462 -24.3216 -16.4457 -16.4457 -16.4046 -11.9320
   -11.9320  -8.5305  -5.9563  -5.4929  -0.4710  -0.4710   2.4023   5.3878
     7.1015   7.7565   8.6630  10.2923

          k = 0.0000 0.0962 0.0000 (  2286 PWs)   bands (ev):

   -36.0085 -31.3750 -30.9540 -24.2659 -16.3881 -16.3093 -15.8834 -12.3288
   -12.2092  -8.0771  -6.1605  -5.3704  -0.7146   0.1047   2.8918   5.4722
     7.3218   7.9252   8.8475   9.9712

          k = 0.0000 0.1925 0.0000 (  2280 PWs)   bands (ev):

   -36.4994 -31.9429 -30.5207 -24.0038 -16.1330 -15.9795 -14.4164 -13.3206
   -12.7761  -6.9671  -6.6367  -4.8273  -0.9545   1.5958   3.4378   5.7598
     6.8221   7.9895   8.4749   9.4599

          k = 0.0000 0.2887 0.0000 (  2278 PWs)   bands (ev):

   -37.0551 -32.6163 -30.0892 -23.5121 -15.8088 -15.5650 -14.2171 -13.9520
   -11.7095  -7.3568  -5.7990  -3.9647  -1.0426   3.0007   3.4596   4.2229
     6.5163   9.0747   9.3248   9.5880

          k = 0.0000 0.3849 0.0000 (  2272 PWs)   bands (ev):

   -37.5279 -33.2052 -29.7923 -22.7577 -16.7925 -14.7665 -14.5344 -13.6519
    -9.0819  -8.2431  -5.0615  -3.6246  -1.2028   2.1776   3.5110   4.8959
     7.4212   7.9810   8.7193  10.3185

          k = 0.0000 0.4811 0.0000 (  2282 PWs)   bands (ev):

   -37.8386 -33.5956 -29.6387 -21.8957 -18.0548 -14.9529 -14.0230 -12.2610
    -9.3025  -6.5097  -5.0262  -4.6121  -0.7630   2.0935   3.7883   4.9742
     6.4617   6.6932   8.8709  11.3613

          k = 0.0000-0.5774 0.0000 (  2260 PWs)   bands (ev):

   -37.9460 -33.7313 -29.5942 -21.3909 -18.6616 -15.0996 -13.7075 -10.8303
   -10.4714  -5.8134  -5.2533  -4.5012  -0.5378   2.2571   3.9671   4.2070
     5.8853   6.2948   9.7577  12.0316

          k = 0.0833 0.1443 0.0000 (  2291 PWs)   bands (ev):

   -36.3497 -31.8250 -30.5882 -24.1037 -16.2629 -16.1006 -14.8214 -12.9450
   -12.7237  -7.2942  -6.4742  -5.0214  -0.9184   1.1207   3.3744   5.6630
     7.5406   7.8112   8.2634   9.2722

          k = 0.0833 0.2406 0.0000 (  2281 PWs)   bands (ev):

   -36.8403 -32.5471 -30.0417 -23.7092 -15.9292 -15.7415 -14.0520 -13.7922
   -12.3814  -7.0042  -6.1550  -4.2266  -1.0137   2.7363   3.3304   4.8713
     5.9974   8.6414   8.9626   9.7091

          k = 0.0833 0.3368 0.0000 (  2266 PWs)   bands (ev):

   -37.3085 -33.2760 -29.5594 -23.1003 -16.1826 -15.3168 -14.4057 -14.2067
    -9.9677  -7.7267  -5.2324  -3.4259  -1.2430   2.2681   3.5588   4.3413
     6.5270   8.5526   9.9684  10.1092

          k = 0.0833 0.4330 0.0000 (  2279 PWs)   bands (ev):

   -37.6589 -33.8390 -29.2437 -22.2737 -17.4571 -15.1758 -14.2373 -13.2504
    -8.9620  -7.0089  -4.6907  -4.0182  -1.1681   2.0122   3.2871   5.4408
     6.4428   7.3766   9.2164  11.0043

          k = 0.0833 0.5292 0.0000 (  2273 PWs)   bands (ev):

   -37.8433 -34.1412 -29.0996 -21.4732 -18.5527 -15.3874 -13.7567 -11.7615
   -10.1831  -5.6334  -4.6532  -4.3597  -0.6530   2.2436   3.4129   4.5797
     5.8578   6.8719   9.7970  11.5055

          k = 0.1667 0.2887 0.0000 (  2273 PWs)   bands (ev):

   -37.1934 -33.4384 -29.3099 -23.2554 -15.7863 -15.7704 -14.4635 -14.4476
   -10.1543  -7.4871  -5.2914  -3.4259  -1.2356   2.2280   3.7292   3.9578
     5.9615   8.7356   9.7470   9.9419

          k = 0.1667 0.3849 0.0000 (  2279 PWs)   bands (ev):

   -37.4529 -34.2780 -28.6409 -22.5324 -16.8687 -15.7993 -14.3203 -14.0583
    -8.8079  -6.9298  -4.5488  -3.0812  -1.7895   1.7040   3.1944   4.9692
     6.3681   7.6656  10.7494  11.2998

          k = 0.1667 0.4811 0.0000 (  2273 PWs)   bands (ev):

   -37.5907 -34.8674 -28.2082 -21.6610 -18.1766 -16.0446 -13.7839 -13.0662
    -9.8602  -5.3785  -4.0612  -3.5584  -1.0717   2.1701   2.8864   5.3022
     5.9151   7.2096  10.6251  11.2040

          k = 0.1667 0.5774 0.0000 (  2254 PWs)   bands (ev):

   -37.6295 -35.0809 -28.0648 -21.0932 -18.9194 -16.1726 -13.5766 -12.0159
   -10.9634  -5.4654  -3.8675  -3.3467   0.0999   2.4800   2.8202   4.2909
     5.2656   8.1583   9.8972  11.7810

          k = 0.2500 0.4330 0.0000 (  2269 PWs)   bands (ev):

   -37.4244 -35.2287 -27.7809 -21.7675 -17.8896 -16.4610 -13.7179 -13.7141
    -9.7277  -5.2524  -3.8807  -3.0005  -1.4422   1.9979   2.8911   5.1758
     6.4590   7.2217  11.5551  11.6203

          k = 0.2500 0.5292 0.0000 (  2253 PWs)   bands (ev):

   -37.2748 -35.8755 -27.2741 -20.8888 -19.0034 -16.7536 -13.4432 -12.7783
   -11.0311  -4.9988  -3.5770  -3.3481   1.3299   2.4771   2.9277   4.4864
     5.4232   8.6134   9.5562  10.7132

          k = 0.3333 0.5774 0.0000 (  2259 PWs)   bands (ev):

   -36.6983 -36.6983 -26.8944 -19.9680 -19.9680 -16.9904 -13.3273 -12.0979
   -12.0979  -4.3512  -4.3511  -3.1138   2.3389   3.4997   3.4998   5.1573
     5.1574   6.0838  10.6311  10.6396

     the Fermi energy is     5.5304 ev

!    total energy              =     -59.37921259 Ry
     estimated scf accuracy    <          1.0E-09 Ry
     smearing contrib. (-TS)   =      -0.00006111 Ry
     internal energy E=F+TS    =     -59.37915148 Ry

     The total energy is F=E-TS. E is the sum of the following terms:
     one-electron contribution =   -2245.22501157 Ry
     hartree contribution      =    1133.87713600 Ry
     xc contribution           =     -44.92589678 Ry
     ewald contribution        =    1096.89462087 Ry

     convergence has been achieved in  36 iterations

     negative rho (up, down):  8.875E-03 0.000E+00

     Forces acting on atoms (cartesian axes, Ry/au):

     atom    1 type  1   force =     0.00000000    0.00000000  -24.12682900
     atom    2 type  1   force =     0.00000000    0.00000000   -2.69510724
     atom    3 type  1   force =     0.00000000    0.00000000   -2.19965751
     atom    4 type  1   force =     0.00000000    0.00000000    2.03434661
     atom    5 type  1   force =     0.00000000    0.00000000   -2.03412839
     atom    6 type  1   force =     0.00000000    0.00000000    2.19956787
     atom    7 type  1   force =     0.00000000    0.00000000    2.69505292
     atom    8 type  1   force =     0.00000000    0.00000000   24.12675473

     Total force =    34.593120     Total SCF correction =     0.000121


     Computing stress (Cartesian axis) and pressure


     negative rho (up, down):  8.875E-03 0.000E+00
          total   stress  (Ry/bohr**3)                   (kbar)     P=     9099.17
   0.02563204   0.00000000   0.00000000         3770.60        0.00        0.00
   0.00000000   0.02563204   0.00000000            0.00     3770.60        0.00
   0.00000000   0.00000000   0.13430058            0.00        0.00    19756.30


     Writing all to output data dir /run/media/rfa/SATA/Skripsi/DFT/Graphene-copy/tmp/gr-ab-4L.save/ :
     XML data file, charge density, pseudopotentials, collected wavefunctions

     init_run     :      0.63s CPU      0.82s WALL (       1 calls)
     electrons    :     35.49s CPU     18.73s WALL (       1 calls)
     forces       :      0.08s CPU      0.04s WALL (       1 calls)
     stress       :      0.25s CPU      0.14s WALL (       1 calls)

     Called by init_run:
     wfcinit      :      0.28s CPU      0.15s WALL (       1 calls)
     potinit      :      0.00s CPU      0.01s WALL (       1 calls)
     hinit0       :      0.33s CPU      0.64s WALL (       1 calls)

     Called by electrons:
     c_bands      :     32.05s CPU     16.86s WALL (      36 calls)
     sum_band     :      2.85s CPU      1.51s WALL (      36 calls)
     v_of_rho     :      0.28s CPU      0.15s WALL (      37 calls)
     newd         :      0.16s CPU      0.13s WALL (      37 calls)
     mix_rho      :      0.10s CPU      0.05s WALL (      36 calls)

     Called by c_bands:
     init_us_2    :      0.59s CPU      0.31s WALL (    1425 calls)
     cegterg      :     30.82s CPU     16.15s WALL (     685 calls)

     Called by *egterg:
     cdiaghg      :      5.54s CPU      2.83s WALL (    5074 calls)
     h_psi        :     19.03s CPU     10.09s WALL (    5093 calls)
     s_psi        :      0.88s CPU      0.45s WALL (    5093 calls)
     g_psi        :      0.21s CPU      0.11s WALL (    4389 calls)

     Called by h_psi:
     h_psi:calbec :      3.29s CPU      1.71s WALL (    5093 calls)
     vloc_psi     :     13.57s CPU      7.24s WALL (    5093 calls)
     add_vuspsi   :      1.80s CPU      0.93s WALL (    5093 calls)

     General routines
     calbec       :      3.74s CPU      1.94s WALL (    6100 calls)
     fft          :      0.40s CPU      0.67s WALL (     432 calls)
     ffts         :      0.01s CPU      0.01s WALL (      36 calls)
     fftw         :     12.16s CPU      6.44s WALL (  113202 calls)

     Parallel routines

     PWSCF        :     36.54s CPU     20.04s WALL


   This run was terminated on:  15:14:40  16Apr2025            

=------------------------------------------------------------------------------=
   JOB DONE.
=------------------------------------------------------------------------------=
