
     Program PWSCF v.7.4.1 starts on 16Apr2025 at 15:13:58 

     This program is part of the open-source Quantum ESPRESSO suite
     for quantum simulation of materials; please cite
         "P. Giannozzi et al., J. Phys.:Condens. Matter 21 395502 (2009);
         "P. Giannozzi et al., J. Phys.:Condens. Matter 29 465901 (2017);
         "P. Giannozzi et al., J. Chem. Phys. 152 154105 (2020);
          URL http://www.quantum-espresso.org", 
     in publications or presentations arising from this work. More details at
     http://www.quantum-espresso.org/quote

     Parallel version (MPI), running on     7 processors

     MPI processes distributed on     1 nodes
     14755 MiB available memory on the printing compute node when the environment starts

     Waiting for input...
     Reading input from standard input

     Current dimensions of program PWSCF are:
     Max number of different atomic species (ntypx) = 10
     Max number of k-points (npk) =  40000
     Max angular momentum in pseudopotentials (lmaxx) =  4

     R & G space division:  proc/nbgrp/npool/nimage =       7
     Subspace diagonalization in iterative solution of the eigenvalue problem:
     a serial algorithm will be used


     Parallelization info
     --------------------
     sticks:   dense  smooth     PW     G-vecs:    dense   smooth      PW
     Min          29      29      9                 2121     2121     397
     Max          31      31     13                 2125     2125     402
     Sum         211     211     73                14861    14861    2797

     Using Slab Decomposition



     bravais-lattice index     =            4
     lattice parameter (alat)  =       4.6561  a.u.
     unit-cell volume          =     532.1899 (a.u.)^3
     number of atoms/cell      =            8
     number of atomic types    =            1
     number of electrons       =        32.00
     number of Kohn-Sham states=           20
     kinetic-energy cutoff     =      35.0000  Ry
     charge density cutoff     =     140.0000  Ry
     scf convergence threshold =      1.0E-08
     mixing beta               =       0.7000
     number of iterations used =            8  plain     mixing
     Exchange-correlation= PBE
                           (   1   4   3   4   0   0   0)

     celldm(1)=   4.656107  celldm(2)=   0.000000  celldm(3)=   6.087896
     celldm(4)=   0.000000  celldm(5)=   0.000000  celldm(6)=   0.000000

     crystal axes: (cart. coord. in units of alat)
               a(1) = (   1.000000   0.000000   0.000000 )  
               a(2) = (  -0.500000   0.866025   0.000000 )  
               a(3) = (   0.000000   0.000000   6.087896 )  

     reciprocal axes: (cart. coord. in units 2 pi/alat)
               b(1) = (  1.000000  0.577350 -0.000000 )  
               b(2) = (  0.000000  1.154701  0.000000 )  
               b(3) = (  0.000000 -0.000000  0.164260 )  


     PseudoPot. # 1 for C  read from file:
     /run/media/rfa/SATA/Skripsi/DFT/Graphene-copy/pseudo/C.pbe-n-rrkjus_psl.0.1.UPF
     MD5 check sum: 96a6a315177d77e6c95bf6fd3870f9e3
     Pseudo is Ultrasoft + core correction, Zval =  4.0
     Generated using &quot;atomic&quot; code by A. Dal Corso  v.6.3MaX
     Using radial grid of 1073 points,  4 beta functions with: 
                l(1) =   0
                l(2) =   0
                l(3) =   1
                l(4) =   1
     Q(r) pseudized with 0 coefficients 


     atomic species   valence    mass     pseudopotential
     C                 4.00    12.01070     C ( 1.00)

      6 Sym. Ops. (no inversion) found



   Cartesian axes

     site n.     atom                  positions (alat units)
         1        C      tau(   1) = (   0.0000000   0.5773503   3.0439478  )
         2        C      tau(   2) = (   0.5000000   0.2886751   3.0439478  )
         3        C      tau(   3) = (   0.0000000   0.0000000   3.2468777  )
         4        C      tau(   4) = (   0.0000000   0.5773503   3.2468777  )
         5        C      tau(   5) = (   0.0000000   0.5773503   3.4498075  )
         6        C      tau(   6) = (   0.5000000   0.2886751   3.4498075  )
         7        C      tau(   7) = (   0.0000000   0.0000000   3.6527374  )
         8        C      tau(   8) = (   0.0000000   0.5773503   3.6527374  )

     number of k points=    19  Marzari-Vanderbilt smearing, width (Ry)=  0.0200
                       cart. coord. in units 2pi/alat
        k(    1) = (   0.0000000   0.0000000   0.0000000), wk =   0.0138889
        k(    2) = (   0.0000000   0.0962250   0.0000000), wk =   0.0833333
        k(    3) = (   0.0000000   0.1924501   0.0000000), wk =   0.0833333
        k(    4) = (   0.0000000   0.2886751   0.0000000), wk =   0.0833333
        k(    5) = (   0.0000000   0.3849002   0.0000000), wk =   0.0833333
        k(    6) = (   0.0000000   0.4811252   0.0000000), wk =   0.0833333
        k(    7) = (   0.0000000  -0.5773503   0.0000000), wk =   0.0416667
        k(    8) = (   0.0833333   0.1443376   0.0000000), wk =   0.0833333
        k(    9) = (   0.0833333   0.2405626   0.0000000), wk =   0.1666667
        k(   10) = (   0.0833333   0.3367877   0.0000000), wk =   0.1666667
        k(   11) = (   0.0833333   0.4330127   0.0000000), wk =   0.1666667
        k(   12) = (   0.0833333   0.5292377   0.0000000), wk =   0.1666667
        k(   13) = (   0.1666667   0.2886751   0.0000000), wk =   0.0833333
        k(   14) = (   0.1666667   0.3849002   0.0000000), wk =   0.1666667
        k(   15) = (   0.1666667   0.4811252   0.0000000), wk =   0.1666667
        k(   16) = (   0.1666667   0.5773503   0.0000000), wk =   0.0833333
        k(   17) = (   0.2500000   0.4330127   0.0000000), wk =   0.0833333
        k(   18) = (   0.2500000   0.5292377   0.0000000), wk =   0.1666667
        k(   19) = (   0.3333333   0.5773503   0.0000000), wk =   0.0277778

     Dense  grid:    14861 G-vectors     FFT dimensions: (  18,  18, 108)

     Estimated max dynamical RAM per process >       5.52 MB

     Estimated total dynamical RAM >      38.61 MB

     Check: negative core charge=   -0.000028

     Initial potential from superposition of free atoms

     starting charge      31.9997, renormalised to      32.0000

     negative rho (up, down):  1.735E-03 0.000E+00
     Starting wfcs are   32 randomized atomic wfcs

     total cpu time spent up to now is        0.7 secs

     per-process dynamical memory:    10.3 Mb

     Self-consistent Calculation

     iteration #  1     ecut=    35.00 Ry     beta= 0.70
     Davidson diagonalization with overlap
     ethr =  1.00E-02,  avg # of iterations =  8.3

     negative rho (up, down):  1.911E-02 0.000E+00

     total cpu time spent up to now is        1.5 secs

     total energy              =     -45.23045359 Ry
     estimated scf accuracy    <      30.35161911 Ry

     iteration #  2     ecut=    35.00 Ry     beta= 0.70
     Davidson diagonalization with overlap
     c_bands:  1 eigenvalues not converged
     ethr =  1.00E-02,  avg # of iterations = 16.9

     total cpu time spent up to now is        2.7 secs

     total energy              =     -20.59541448 Ry
     estimated scf accuracy    <     155.79077753 Ry

     iteration #  3     ecut=    35.00 Ry     beta= 0.70
     Davidson diagonalization with overlap
     c_bands:  2 eigenvalues not converged
     c_bands:  2 eigenvalues not converged
     c_bands:  1 eigenvalues not converged
     c_bands:  1 eigenvalues not converged
     ethr =  1.00E-02,  avg # of iterations = 15.1

     total cpu time spent up to now is        3.8 secs

     total energy              =     -58.72485500 Ry
     estimated scf accuracy    <       7.94679044 Ry

     iteration #  4     ecut=    35.00 Ry     beta= 0.70
     Davidson diagonalization with overlap
     ethr =  1.00E-02,  avg # of iterations =  4.5

     total cpu time spent up to now is        4.2 secs

     total energy              =     -59.51545647 Ry
     estimated scf accuracy    <       2.18747684 Ry

     iteration #  5     ecut=    35.00 Ry     beta= 0.70
     Davidson diagonalization with overlap
     ethr =  6.84E-03,  avg # of iterations =  1.6

     total cpu time spent up to now is        4.4 secs

     total energy              =     -59.14665197 Ry
     estimated scf accuracy    <       1.58785125 Ry

     iteration #  6     ecut=    35.00 Ry     beta= 0.70
     Davidson diagonalization with overlap
     ethr =  4.96E-03,  avg # of iterations =  1.4

     total cpu time spent up to now is        4.7 secs

     total energy              =     -59.09680586 Ry
     estimated scf accuracy    <       1.03895607 Ry

     iteration #  7     ecut=    35.00 Ry     beta= 0.70
     Davidson diagonalization with overlap
     ethr =  3.25E-03,  avg # of iterations =  1.5

     total cpu time spent up to now is        5.0 secs

     total energy              =     -59.04849990 Ry
     estimated scf accuracy    <       0.70500614 Ry

     iteration #  8     ecut=    35.00 Ry     beta= 0.70
     Davidson diagonalization with overlap
     ethr =  2.20E-03,  avg # of iterations =  1.6

     total cpu time spent up to now is        5.3 secs

     total energy              =     -58.92208112 Ry
     estimated scf accuracy    <       0.51086543 Ry

     iteration #  9     ecut=    35.00 Ry     beta= 0.70
     Davidson diagonalization with overlap
     ethr =  1.60E-03,  avg # of iterations =  2.2

     negative rho (up, down):  3.938E-03 0.000E+00

     total cpu time spent up to now is        5.6 secs

     total energy              =     -58.74863692 Ry
     estimated scf accuracy    <       0.28427681 Ry

     iteration # 10     ecut=    35.00 Ry     beta= 0.70
     Davidson diagonalization with overlap
     ethr =  8.88E-04,  avg # of iterations =  9.8

     negative rho (up, down):  1.619E-02 0.000E+00

     total cpu time spent up to now is        6.2 secs

     total energy              =     -58.87718162 Ry
     estimated scf accuracy    <       0.01787970 Ry

     iteration # 11     ecut=    35.00 Ry     beta= 0.70
     Davidson diagonalization with overlap
     c_bands:  1 eigenvalues not converged
     c_bands:  1 eigenvalues not converged
     c_bands:  2 eigenvalues not converged
     c_bands:  2 eigenvalues not converged
     c_bands:  1 eigenvalues not converged
     c_bands:  1 eigenvalues not converged
     c_bands:  1 eigenvalues not converged
     c_bands:  1 eigenvalues not converged
     c_bands:  2 eigenvalues not converged
     c_bands:  2 eigenvalues not converged
     ethr =  5.59E-05,  avg # of iterations = 16.9

     negative rho (up, down):  1.742E-04 0.000E+00

     total cpu time spent up to now is        7.3 secs

     total energy              =     -58.69691560 Ry
     estimated scf accuracy    <       0.75558757 Ry

     iteration # 12     ecut=    35.00 Ry     beta= 0.70
     Davidson diagonalization with overlap
     c_bands:  3 eigenvalues not converged
     c_bands:  1 eigenvalues not converged
     c_bands:  2 eigenvalues not converged
     c_bands:  1 eigenvalues not converged
     c_bands:  1 eigenvalues not converged
     c_bands:  2 eigenvalues not converged
     c_bands:  2 eigenvalues not converged
     c_bands:  1 eigenvalues not converged
     c_bands:  2 eigenvalues not converged
     c_bands:  2 eigenvalues not converged
     ethr =  5.59E-05,  avg # of iterations = 15.9

     negative rho (up, down):  3.692E-04 0.000E+00

     total cpu time spent up to now is        8.1 secs

     total energy              =     -58.89296499 Ry
     estimated scf accuracy    <       0.04716836 Ry

     iteration # 13     ecut=    35.00 Ry     beta= 0.70
     Davidson diagonalization with overlap
     c_bands:  1 eigenvalues not converged
     c_bands:  1 eigenvalues not converged
     c_bands:  1 eigenvalues not converged
     c_bands:  1 eigenvalues not converged
     ethr =  5.59E-05,  avg # of iterations =  8.0

     negative rho (up, down):  2.904E-02 0.000E+00

     total cpu time spent up to now is        8.5 secs

     total energy              =     -58.88491587 Ry
     estimated scf accuracy    <       0.03861571 Ry

     iteration # 14     ecut=    35.00 Ry     beta= 0.70
     Davidson diagonalization with overlap
     c_bands:  1 eigenvalues not converged
     c_bands:  1 eigenvalues not converged
     c_bands:  1 eigenvalues not converged
     c_bands:  1 eigenvalues not converged
     c_bands:  2 eigenvalues not converged
     c_bands:  1 eigenvalues not converged
     ethr =  5.59E-05,  avg # of iterations = 14.5

     negative rho (up, down):  4.513E-02 0.000E+00

     total cpu time spent up to now is        9.2 secs

     total energy              =     -58.95460384 Ry
     estimated scf accuracy    <       0.80814873 Ry

     iteration # 15     ecut=    35.00 Ry     beta= 0.70
     Davidson diagonalization with overlap
     c_bands:  2 eigenvalues not converged
     ethr =  5.59E-05,  avg # of iterations =  7.3

     negative rho (up, down):  8.847E-02 0.000E+00

     total cpu time spent up to now is        9.6 secs

     total energy              =     -59.13212852 Ry
     estimated scf accuracy    <       1.87590022 Ry

     iteration # 16     ecut=    35.00 Ry     beta= 0.70
     Davidson diagonalization with overlap
     c_bands:  1 eigenvalues not converged
     c_bands:  1 eigenvalues not converged
     ethr =  5.59E-05,  avg # of iterations =  9.8

     negative rho (up, down):  1.873E-01 0.000E+00

     total cpu time spent up to now is       10.1 secs

     total energy              =     -60.02295397 Ry
     estimated scf accuracy    <       9.36003358 Ry

     iteration # 17     ecut=    35.00 Ry     beta= 0.70
     Davidson diagonalization with overlap
     c_bands:  3 eigenvalues not converged
     c_bands:  2 eigenvalues not converged
     c_bands:  1 eigenvalues not converged
     c_bands:  1 eigenvalues not converged
     c_bands:  2 eigenvalues not converged
     ethr =  5.59E-05,  avg # of iterations = 17.6

     negative rho (up, down):  1.745E-01 0.000E+00

     total cpu time spent up to now is       11.0 secs

     total energy              =     -60.25020842 Ry
     estimated scf accuracy    <      53.20478723 Ry

     iteration # 18     ecut=    35.00 Ry     beta= 0.70
     Davidson diagonalization with overlap
     ethr =  5.59E-05,  avg # of iterations =  4.9

     negative rho (up, down):  3.463E-02 0.000E+00

     total cpu time spent up to now is       11.3 secs

     total energy              =     -57.50080670 Ry
     estimated scf accuracy    <      43.46159751 Ry

     iteration # 19     ecut=    35.00 Ry     beta= 0.70
     Davidson diagonalization with overlap
     c_bands:  2 eigenvalues not converged
     c_bands:  2 eigenvalues not converged
     c_bands:  3 eigenvalues not converged
     c_bands:  1 eigenvalues not converged
     c_bands:  2 eigenvalues not converged
     c_bands:  1 eigenvalues not converged
     c_bands:  2 eigenvalues not converged
     c_bands:  3 eigenvalues not converged
     c_bands:  3 eigenvalues not converged
     c_bands:  1 eigenvalues not converged
     c_bands:  3 eigenvalues not converged
     c_bands:  3 eigenvalues not converged
     c_bands:  1 eigenvalues not converged
     c_bands:  3 eigenvalues not converged
     c_bands:  1 eigenvalues not converged
     c_bands:  1 eigenvalues not converged
     c_bands:  1 eigenvalues not converged
     c_bands:  2 eigenvalues not converged
     c_bands:  2 eigenvalues not converged
     ethr =  5.59E-05,  avg # of iterations = 20.0

     negative rho (up, down):  2.185E-03 0.000E+00

     total cpu time spent up to now is       12.3 secs

     total energy              =     -58.76691249 Ry
     estimated scf accuracy    <       0.31956844 Ry

     iteration # 20     ecut=    35.00 Ry     beta= 0.70
     Davidson diagonalization with overlap
     c_bands:  2 eigenvalues not converged
     c_bands:  4 eigenvalues not converged
     c_bands:  1 eigenvalues not converged
     c_bands:  3 eigenvalues not converged
     c_bands:  1 eigenvalues not converged
     c_bands:  2 eigenvalues not converged
     c_bands:  1 eigenvalues not converged
     c_bands:  3 eigenvalues not converged
     c_bands:  3 eigenvalues not converged
     c_bands:  2 eigenvalues not converged
     c_bands:  2 eigenvalues not converged
     c_bands:  2 eigenvalues not converged
     c_bands:  2 eigenvalues not converged
     c_bands:  2 eigenvalues not converged
     c_bands:  1 eigenvalues not converged
     c_bands:  2 eigenvalues not converged
     c_bands:  2 eigenvalues not converged
     ethr =  5.59E-05,  avg # of iterations = 18.8

     negative rho (up, down):  1.244E-03 0.000E+00

     total cpu time spent up to now is       13.2 secs

     total energy              =     -58.88765284 Ry
     estimated scf accuracy    <       0.02487049 Ry

     iteration # 21     ecut=    35.00 Ry     beta= 0.70
     Davidson diagonalization with overlap
     c_bands:  1 eigenvalues not converged
     c_bands:  2 eigenvalues not converged
     c_bands:  1 eigenvalues not converged
     c_bands:  1 eigenvalues not converged
     ethr =  5.59E-05,  avg # of iterations = 12.2

     negative rho (up, down):  1.801E-03 0.000E+00

     total cpu time spent up to now is       13.7 secs

     total energy              =     -58.88768114 Ry
     estimated scf accuracy    <       0.02250704 Ry

     iteration # 22     ecut=    35.00 Ry     beta= 0.70
     Davidson diagonalization with overlap
     c_bands:  1 eigenvalues not converged
     ethr =  5.59E-05,  avg # of iterations =  2.6

     negative rho (up, down):  2.200E-03 0.000E+00

     total cpu time spent up to now is       14.0 secs

     total energy              =     -58.88760729 Ry
     estimated scf accuracy    <       0.01990940 Ry

     iteration # 23     ecut=    35.00 Ry     beta= 0.70
     Davidson diagonalization with overlap
     ethr =  5.59E-05,  avg # of iterations =  1.4

     negative rho (up, down):  1.748E-03 0.000E+00

     total cpu time spent up to now is       14.3 secs

     total energy              =     -58.88709912 Ry
     estimated scf accuracy    <       0.01908292 Ry

     iteration # 24     ecut=    35.00 Ry     beta= 0.70
     Davidson diagonalization with overlap
     ethr =  5.59E-05,  avg # of iterations =  1.0

     negative rho (up, down):  3.953E-03 0.000E+00

     total cpu time spent up to now is       14.6 secs

     total energy              =     -58.88076138 Ry
     estimated scf accuracy    <       0.01832224 Ry

     iteration # 25     ecut=    35.00 Ry     beta= 0.70
     Davidson diagonalization with overlap
     ethr =  5.59E-05,  avg # of iterations =  2.3

     negative rho (up, down):  2.442E-03 0.000E+00

     total cpu time spent up to now is       14.9 secs

     total energy              =     -58.89044778 Ry
     estimated scf accuracy    <       0.00968118 Ry

     iteration # 26     ecut=    35.00 Ry     beta= 0.70
     Davidson diagonalization with overlap
     c_bands:  1 eigenvalues not converged
     c_bands:  2 eigenvalues not converged
     ethr =  3.03E-05,  avg # of iterations =  5.3

     negative rho (up, down):  2.136E-03 0.000E+00

     total cpu time spent up to now is       15.3 secs

     total energy              =     -58.89212364 Ry
     estimated scf accuracy    <       0.02299070 Ry

     iteration # 27     ecut=    35.00 Ry     beta= 0.70
     Davidson diagonalization with overlap
     ethr =  3.03E-05,  avg # of iterations =  2.2

     negative rho (up, down):  1.701E-03 0.000E+00

     total cpu time spent up to now is       15.6 secs

     total energy              =     -58.88749631 Ry
     estimated scf accuracy    <       0.02506366 Ry

     iteration # 28     ecut=    35.00 Ry     beta= 0.70
     Davidson diagonalization with overlap
     ethr =  3.03E-05,  avg # of iterations =  2.1

     negative rho (up, down):  1.712E-02 0.000E+00

     total cpu time spent up to now is       15.9 secs

     total energy              =     -58.87188143 Ry
     estimated scf accuracy    <       0.02145451 Ry

     iteration # 29     ecut=    35.00 Ry     beta= 0.70
     Davidson diagonalization with overlap
     c_bands:  1 eigenvalues not converged
     c_bands:  1 eigenvalues not converged
     c_bands:  1 eigenvalues not converged
     c_bands:  1 eigenvalues not converged
     c_bands:  2 eigenvalues not converged
     ethr =  3.03E-05,  avg # of iterations = 10.9

     negative rho (up, down):  1.583E-02 0.000E+00

     total cpu time spent up to now is       16.4 secs

     total energy              =     -58.87474453 Ry
     estimated scf accuracy    <       0.00007457 Ry

     iteration # 30     ecut=    35.00 Ry     beta= 0.70
     Davidson diagonalization with overlap
     c_bands:  1 eigenvalues not converged
     c_bands:  1 eigenvalues not converged
     c_bands:  1 eigenvalues not converged
     ethr =  2.33E-07,  avg # of iterations = 11.9

     negative rho (up, down):  1.577E-02 0.000E+00

     total cpu time spent up to now is       17.2 secs

     total energy              =     -58.87488413 Ry
     estimated scf accuracy    <       0.00012730 Ry

     iteration # 31     ecut=    35.00 Ry     beta= 0.70
     Davidson diagonalization with overlap
     ethr =  2.33E-07,  avg # of iterations =  3.1

     negative rho (up, down):  1.588E-02 0.000E+00

     total cpu time spent up to now is       17.5 secs

     total energy              =     -58.87488077 Ry
     estimated scf accuracy    <       0.00002351 Ry

     iteration # 32     ecut=    35.00 Ry     beta= 0.70
     Davidson diagonalization with overlap
     ethr =  7.35E-08,  avg # of iterations =  5.1

     negative rho (up, down):  1.583E-02 0.000E+00

     total cpu time spent up to now is       18.0 secs

     total energy              =     -58.87489501 Ry
     estimated scf accuracy    <       0.00001309 Ry

     iteration # 33     ecut=    35.00 Ry     beta= 0.70
     Davidson diagonalization with overlap
     ethr =  4.09E-08,  avg # of iterations =  1.5

     negative rho (up, down):  1.580E-02 0.000E+00

     total cpu time spent up to now is       18.3 secs

     total energy              =     -58.87489364 Ry
     estimated scf accuracy    <       0.00000540 Ry

     iteration # 34     ecut=    35.00 Ry     beta= 0.70
     Davidson diagonalization with overlap
     ethr =  1.69E-08,  avg # of iterations =  3.4

     negative rho (up, down):  1.580E-02 0.000E+00

     total cpu time spent up to now is       18.7 secs

     total energy              =     -58.87489456 Ry
     estimated scf accuracy    <       0.00000036 Ry

     iteration # 35     ecut=    35.00 Ry     beta= 0.70
     Davidson diagonalization with overlap
     ethr =  1.13E-09,  avg # of iterations =  7.4

     negative rho (up, down):  1.580E-02 0.000E+00

     total cpu time spent up to now is       19.3 secs

     total energy              =     -58.87489495 Ry
     estimated scf accuracy    <       0.00000009 Ry

     iteration # 36     ecut=    35.00 Ry     beta= 0.70
     Davidson diagonalization with overlap
     ethr =  2.76E-10,  avg # of iterations =  4.2

     negative rho (up, down):  1.580E-02 0.000E+00

     total cpu time spent up to now is       19.7 secs

     total energy              =     -58.87489497 Ry
     estimated scf accuracy    <       0.00000002 Ry

     iteration # 37     ecut=    35.00 Ry     beta= 0.70
     Davidson diagonalization with overlap
     ethr =  6.76E-11,  avg # of iterations =  6.3

     negative rho (up, down):  1.579E-02 0.000E+00

     total cpu time spent up to now is       20.2 secs

     total energy              =     -58.87489498 Ry
     estimated scf accuracy    <       0.00000001 Ry

     iteration # 38     ecut=    35.00 Ry     beta= 0.70
     Davidson diagonalization with overlap
     ethr =  4.30E-11,  avg # of iterations =  2.2

     negative rho (up, down):  1.579E-02 0.000E+00

     total cpu time spent up to now is       20.5 secs

     End of self-consistent calculation

          k = 0.0000 0.0000 0.0000 (  1907 PWs)   bands (ev):

   -35.5931 -31.4611 -31.4610 -23.6197 -16.2681 -16.1932 -16.1932 -11.9257
   -11.9257  -8.2731  -6.1235  -4.3026  -0.2471  -0.2471   2.5395   6.1460
     6.8264   7.8299   8.4512  10.2609

          k = 0.0000 0.0962 0.0000 (  1889 PWs)   bands (ev):

   -35.8484 -31.6756 -31.2053 -23.5747 -16.1914 -16.1206 -15.6486 -12.2396
   -12.1920  -7.8393  -6.2831  -4.1822  -0.5333   0.3191   3.0258   6.2497
     7.0472   7.9458   8.6361   9.9478

          k = 0.0000 0.1925 0.0000 (  1891 PWs)   bands (ev):

   -36.4206 -32.2129 -30.6434 -23.3784 -15.9351 -15.8069 -14.2392 -13.0796
   -12.7284  -6.7771  -6.6884  -3.7687  -0.8500   1.7852   3.5135   6.3454
     6.8969   7.7221   8.3792   9.2623

          k = 0.0000 0.2887 0.0000 (  1870 PWs)   bands (ev):

   -37.0409 -32.8551 -30.0814 -22.9306 -15.5508 -15.2261 -13.9724 -13.8950
   -11.5716  -7.2403  -5.5722  -3.0253  -1.0102   3.0118   3.6165   4.2690
     7.0246   8.8211   9.2668  10.2656

          k = 0.0000 0.3849 0.0000 (  1848 PWs)   bands (ev):

   -37.5562 -33.4205 -29.6800 -22.2819 -16.0889 -14.4872 -14.4752 -13.5795
    -8.9883  -7.9310  -4.7543  -3.1386  -1.0488   2.2878   3.5609   5.0107
     7.6262   8.8544   8.9154  10.4054

          k = 0.0000 0.4811 0.0000 (  1838 PWs)   bands (ev):

   -37.8902 -33.7970 -29.4648 -21.5989 -17.1037 -14.8891 -13.9253 -12.1286
    -8.9352  -6.4782  -5.0214  -3.9900  -0.7349   2.4544   3.8329   5.0995
     6.6800   6.9084   9.2033  11.4525

          k = 0.0000-0.5774 0.0000 (  1852 PWs)   bands (ev):

   -38.0055 -33.9295 -29.4027 -21.2461 -17.6544 -15.0339 -13.7391 -10.5613
   -10.2508  -5.7232  -5.2698  -3.9919  -0.6543   2.8236   3.9943   4.4133
     5.8636   6.4647  10.0372  12.1121

          k = 0.0833 0.1443 0.0000 (  1893 PWs)   bands (ev):

   -36.2485 -32.0987 -30.7512 -23.4172 -15.9883 -15.9625 -14.6242 -12.7192
   -12.6839  -7.0830  -6.5455  -3.8243  -0.7963   1.3298   3.4737   6.4237
     7.4149   7.6400   8.1827   9.0651

          k = 0.0833 0.2406 0.0000 (  1862 PWs)   bands (ev):

   -36.8037 -32.7830 -30.0928 -23.1475 -15.6626 -15.5911 -13.9435 -13.5084
   -12.2423  -7.0034  -5.9604  -3.2919  -0.9707   2.9447   3.3524   4.8982
     6.5084   8.3740   8.7873   9.8539

          k = 0.0833 0.3368 0.0000 (  1859 PWs)   bands (ev):

   -37.3216 -33.4790 -29.5068 -22.6075 -15.7745 -14.9685 -14.3305 -14.0294
    -9.8705  -7.5723  -4.9732  -2.7583  -1.2248   2.3430   3.5623   4.5530
     6.8629   9.4097   9.7109   9.9745

          k = 0.0833 0.4330 0.0000 (  1850 PWs)   bands (ev):

   -37.7028 -34.0206 -29.1167 -21.9001 -16.8129 -14.8211 -14.1666 -13.1813
    -8.7525  -6.9224  -4.4807  -3.6407  -1.0405   2.2206   3.2597   5.6764
     6.6255   7.7701   9.5457  11.2066

          k = 0.0833 0.5292 0.0000 (  1844 PWs)   bands (ev):

   -37.9024 -34.3121 -28.9317 -21.2806 -17.6801 -15.0705 -13.7342 -11.6259
    -9.9567  -5.5795  -4.6056  -3.8443  -0.6772   2.6889   3.3843   4.7720
     5.9463   7.0459  10.0404  11.9586

          k = 0.1667 0.2887 0.0000 (  1865 PWs)   bands (ev):

   -37.1991 -33.6350 -29.2900 -22.7386 -15.6916 -15.2829 -14.4198 -14.0571
   -10.0673  -7.4235  -5.0491  -2.6379  -1.2812   2.2905   3.6968   4.2587
     6.3578   9.4848   9.6237   9.7761

          k = 0.1667 0.3849 0.0000 (  1860 PWs)   bands (ev):

   -37.4899 -34.4414 -28.5537 -22.1124 -16.6376 -14.9444 -14.2333 -13.9993
    -8.7536  -6.8400  -4.2712  -2.6688  -1.6845   1.8285   3.0875   5.4045
     6.6128   8.1783  10.9505  11.0572

          k = 0.1667 0.4811 0.0000 (  1855 PWs)   bands (ev):

   -37.6492 -35.0075 -28.0738 -21.3810 -17.7463 -15.1581 -13.7797 -13.0021
    -9.7609  -5.3863  -3.8021  -3.2340  -0.9367   2.3646   2.7532   5.4705
     6.3307   7.3483  10.8671  11.9639

          k = 0.1667 0.5774 0.0000 (  1848 PWs)   bands (ev):

   -37.6960 -35.2122 -27.9072 -20.9505 -18.3009 -15.2333 -13.5318 -11.9149
   -10.8941  -5.3744  -3.4102  -3.2985   0.1898   2.6574   2.8296   4.5160
     5.2755   8.3357  10.4274  12.6413

          k = 0.2500 0.4330 0.0000 (  1856 PWs)   bands (ev):

   -37.4810 -35.3602 -27.6545 -21.4507 -17.7695 -15.2226 -13.7032 -13.6516
    -9.6828  -5.2905  -3.6277  -2.6494  -1.2735   2.0447   2.7409   5.5266
     6.9329   7.3406  11.8497  12.2032

          k = 0.2500 0.5292 0.0000 (  1855 PWs)   bands (ev):

   -37.3478 -35.9858 -27.1222 -20.7058 -18.8044 -15.3872 -13.4885 -12.7337
   -11.0134  -4.9392  -3.4633  -3.0188   1.5160   2.2517   3.0274   4.5894
     5.6028   8.9876   9.7572  11.4449

          k = 0.3333 0.5774 0.0000 (  1860 PWs)   bands (ev):

   -36.7874 -36.7874 -26.7329 -19.8363 -19.8361 -15.4568 -13.3937 -12.0840
   -12.0836  -4.2452  -4.2450  -2.8363   2.0858   3.5749   3.5751   5.3067
     5.3070   6.2501  10.8035  10.8038

     the Fermi energy is     5.7814 ev

!    total energy              =     -58.87489498 Ry
     estimated scf accuracy    <          8.2E-10 Ry
     smearing contrib. (-TS)   =       0.00072262 Ry
     internal energy E=F+TS    =     -58.87561760 Ry

     The total energy is F=E-TS. E is the sum of the following terms:
     one-electron contribution =   -2244.70215005 Ry
     hartree contribution      =    1133.76720796 Ry
     xc contribution           =     -44.83529595 Ry
     ewald contribution        =    1096.89462044 Ry

     convergence has been achieved in  38 iterations

     negative rho (up, down):  1.579E-02 0.000E+00

     Forces acting on atoms (cartesian axes, Ry/au):

     atom    1 type  1   force =     0.00000000    0.00000000  -25.03414133
     atom    2 type  1   force =     0.00000000    0.00000000   -2.68083248
     atom    3 type  1   force =     0.00000000   -0.00000000   -2.23847544
     atom    4 type  1   force =     0.00000000    0.00000000    0.58155423
     atom    5 type  1   force =     0.00000000    0.00000000   -0.58411380
     atom    6 type  1   force =     0.00000000    0.00000000    2.23951675
     atom    7 type  1   force =     0.00000000   -0.00000000    2.68210000
     atom    8 type  1   force =     0.00000000    0.00000000   25.03439208

     Total force =    35.756330     Total SCF correction =     0.000187


     Computing stress (Cartesian axis) and pressure


     negative rho (up, down):  1.579E-02 0.000E+00
          total   stress  (Ry/bohr**3)                   (kbar)     P=     9181.33
   0.02494409   0.00000000   0.00000000         3669.40        0.00        0.00
   0.00000000   0.02494409   0.00000000            0.00     3669.40        0.00
   0.00000000   0.00000000   0.13735205            0.00        0.00    20205.18


     Writing all to output data dir /run/media/rfa/SATA/Skripsi/DFT/Graphene-copy/tmp/gr-ab-4L.save/ :
     XML data file, charge density, pseudopotentials, collected wavefunctions

     init_run     :      0.52s CPU      0.59s WALL (       1 calls)
     electrons    :     37.72s CPU     19.87s WALL (       1 calls)
     forces       :      0.06s CPU      0.03s WALL (       1 calls)
     stress       :      0.18s CPU      0.10s WALL (       1 calls)

     Called by init_run:
     wfcinit      :      0.30s CPU      0.16s WALL (       1 calls)
     potinit      :      0.01s CPU      0.01s WALL (       1 calls)
     hinit0       :      0.21s CPU      0.41s WALL (       1 calls)

     Called by electrons:
     c_bands      :     33.88s CPU     17.83s WALL (      38 calls)
     sum_band     :      3.28s CPU      1.73s WALL (      38 calls)
     v_of_rho     :      0.23s CPU      0.12s WALL (      39 calls)
     newd         :      0.18s CPU      0.11s WALL (      39 calls)
     mix_rho      :      0.09s CPU      0.05s WALL (      38 calls)

     Called by c_bands:
     init_us_2    :      0.48s CPU      0.25s WALL (    1501 calls)
     cegterg      :     32.79s CPU     17.17s WALL (     722 calls)

     Called by *egterg:
     cdiaghg      :      6.57s CPU      3.34s WALL (    6074 calls)
     h_psi        :     21.32s CPU     11.21s WALL (    6093 calls)
     s_psi        :      0.73s CPU      0.37s WALL (    6093 calls)
     g_psi        :      0.18s CPU      0.09s WALL (    5352 calls)

     Called by h_psi:
     h_psi:calbec :      2.49s CPU      1.30s WALL (    6093 calls)
     vloc_psi     :     17.23s CPU      9.05s WALL (    6093 calls)
     add_vuspsi   :      1.32s CPU      0.69s WALL (    6093 calls)

     General routines
     calbec       :      2.84s CPU      1.48s WALL (    7138 calls)
     fft          :      0.30s CPU      0.45s WALL (     454 calls)
     ffts         :      0.01s CPU      0.01s WALL (      38 calls)
     fftw         :     17.27s CPU      9.00s WALL (  114082 calls)

     Parallel routines

     PWSCF        :     38.59s CPU     20.88s WALL


   This run was terminated on:  15:14:19  16Apr2025            

=------------------------------------------------------------------------------=
   JOB DONE.
=------------------------------------------------------------------------------=
