
     Program PWSCF v.7.4.1 starts on 16Apr2025 at 15:13:33 

     This program is part of the open-source Quantum ESPRESSO suite
     for quantum simulation of materials; please cite
         "P. Giannozzi et al., J. Phys.:Condens. Matter 21 395502 (2009);
         "P. Giannozzi et al., J. Phys.:Condens. Matter 29 465901 (2017);
         "P. Giannozzi et al., J. Chem. Phys. 152 154105 (2020);
          URL http://www.quantum-espresso.org", 
     in publications or presentations arising from this work. More details at
     http://www.quantum-espresso.org/quote

     Parallel version (MPI), running on     7 processors

     MPI processes distributed on     1 nodes
     14764 MiB available memory on the printing compute node when the environment starts

     Waiting for input...
     Reading input from standard input

     Current dimensions of program PWSCF are:
     Max number of different atomic species (ntypx) = 10
     Max number of k-points (npk) =  40000
     Max angular momentum in pseudopotentials (lmaxx) =  4

     R & G space division:  proc/nbgrp/npool/nimage =       7
     Subspace diagonalization in iterative solution of the eigenvalue problem:
     a serial algorithm will be used


     Parallelization info
     --------------------
     sticks:   dense  smooth     PW     G-vecs:    dense   smooth      PW
     Min          21      21      7                 1345     1345     271
     Max          22      22      8                 1372     1372     290
     Sum         151     151     55                 9519     9519    1981

     Using Slab Decomposition



     bravais-lattice index     =            4
     lattice parameter (alat)  =       4.6561  a.u.
     unit-cell volume          =     532.1899 (a.u.)^3
     number of atoms/cell      =            8
     number of atomic types    =            1
     number of electrons       =        32.00
     number of Kohn-Sham states=           20
     kinetic-energy cutoff     =      26.0000  Ry
     charge density cutoff     =     104.0000  Ry
     scf convergence threshold =      1.0E-08
     mixing beta               =       0.7000
     number of iterations used =            8  plain     mixing
     Exchange-correlation= PBE
                           (   1   4   3   4   0   0   0)

     celldm(1)=   4.656107  celldm(2)=   0.000000  celldm(3)=   6.087896
     celldm(4)=   0.000000  celldm(5)=   0.000000  celldm(6)=   0.000000

     crystal axes: (cart. coord. in units of alat)
               a(1) = (   1.000000   0.000000   0.000000 )  
               a(2) = (  -0.500000   0.866025   0.000000 )  
               a(3) = (   0.000000   0.000000   6.087896 )  

     reciprocal axes: (cart. coord. in units 2 pi/alat)
               b(1) = (  1.000000  0.577350 -0.000000 )  
               b(2) = (  0.000000  1.154701  0.000000 )  
               b(3) = (  0.000000 -0.000000  0.164260 )  


     PseudoPot. # 1 for C  read from file:
     /run/media/rfa/SATA/Skripsi/DFT/Graphene-copy/pseudo/C.pbe-n-rrkjus_psl.0.1.UPF
     MD5 check sum: 96a6a315177d77e6c95bf6fd3870f9e3
     Pseudo is Ultrasoft + core correction, Zval =  4.0
     Generated using &quot;atomic&quot; code by A. Dal Corso  v.6.3MaX
     Using radial grid of 1073 points,  4 beta functions with: 
                l(1) =   0
                l(2) =   0
                l(3) =   1
                l(4) =   1
     Q(r) pseudized with 0 coefficients 


     atomic species   valence    mass     pseudopotential
     C                 4.00    12.01070     C ( 1.00)

      6 Sym. Ops. (no inversion) found



   Cartesian axes

     site n.     atom                  positions (alat units)
         1        C      tau(   1) = (   0.0000000   0.5773503   3.0439478  )
         2        C      tau(   2) = (   0.5000000   0.2886751   3.0439478  )
         3        C      tau(   3) = (   0.0000000   0.0000000   3.2468777  )
         4        C      tau(   4) = (   0.0000000   0.5773503   3.2468777  )
         5        C      tau(   5) = (   0.0000000   0.5773503   3.4498075  )
         6        C      tau(   6) = (   0.5000000   0.2886751   3.4498075  )
         7        C      tau(   7) = (   0.0000000   0.0000000   3.6527374  )
         8        C      tau(   8) = (   0.0000000   0.5773503   3.6527374  )

     number of k points=    19  Marzari-Vanderbilt smearing, width (Ry)=  0.0200
                       cart. coord. in units 2pi/alat
        k(    1) = (   0.0000000   0.0000000   0.0000000), wk =   0.0138889
        k(    2) = (   0.0000000   0.0962250   0.0000000), wk =   0.0833333
        k(    3) = (   0.0000000   0.1924501   0.0000000), wk =   0.0833333
        k(    4) = (   0.0000000   0.2886751   0.0000000), wk =   0.0833333
        k(    5) = (   0.0000000   0.3849002   0.0000000), wk =   0.0833333
        k(    6) = (   0.0000000   0.4811252   0.0000000), wk =   0.0833333
        k(    7) = (   0.0000000  -0.5773503   0.0000000), wk =   0.0416667
        k(    8) = (   0.0833333   0.1443376   0.0000000), wk =   0.0833333
        k(    9) = (   0.0833333   0.2405626   0.0000000), wk =   0.1666667
        k(   10) = (   0.0833333   0.3367877   0.0000000), wk =   0.1666667
        k(   11) = (   0.0833333   0.4330127   0.0000000), wk =   0.1666667
        k(   12) = (   0.0833333   0.5292377   0.0000000), wk =   0.1666667
        k(   13) = (   0.1666667   0.2886751   0.0000000), wk =   0.0833333
        k(   14) = (   0.1666667   0.3849002   0.0000000), wk =   0.1666667
        k(   15) = (   0.1666667   0.4811252   0.0000000), wk =   0.1666667
        k(   16) = (   0.1666667   0.5773503   0.0000000), wk =   0.0833333
        k(   17) = (   0.2500000   0.4330127   0.0000000), wk =   0.0833333
        k(   18) = (   0.2500000   0.5292377   0.0000000), wk =   0.1666667
        k(   19) = (   0.3333333   0.5773503   0.0000000), wk =   0.0277778

     Dense  grid:     9519 G-vectors     FFT dimensions: (  15,  15,  96)

     Estimated max dynamical RAM per process >       3.60 MB

     Estimated total dynamical RAM >      25.22 MB

     Check: negative core charge=   -0.000106

     Initial potential from superposition of free atoms

     starting charge      31.9997, renormalised to      32.0000

     negative rho (up, down):  9.681E-03 0.000E+00
     Starting wfcs are   32 randomized atomic wfcs

     total cpu time spent up to now is        0.5 secs

     per-process dynamical memory:     9.2 Mb

     Self-consistent Calculation

     iteration #  1     ecut=    26.00 Ry     beta= 0.70
     Davidson diagonalization with overlap
     ethr =  1.00E-02,  avg # of iterations =  6.3

     negative rho (up, down):  8.102E-02 0.000E+00

     total cpu time spent up to now is        0.9 secs

     total energy              =     -45.94303855 Ry
     estimated scf accuracy    <      24.83426246 Ry

     iteration #  2     ecut=    26.00 Ry     beta= 0.70
     Davidson diagonalization with overlap
     ethr =  1.00E-02,  avg # of iterations = 12.5

     negative rho (up, down):  2.011E-05 0.000E+00

     total cpu time spent up to now is        1.4 secs

     total energy              =     -19.32771429 Ry
     estimated scf accuracy    <     162.49927496 Ry

     iteration #  3     ecut=    26.00 Ry     beta= 0.70
     Davidson diagonalization with overlap
     ethr =  1.00E-02,  avg # of iterations = 11.6

     negative rho (up, down):  2.480E-04 0.000E+00

     total cpu time spent up to now is        1.9 secs

     total energy              =     -57.41137785 Ry
     estimated scf accuracy    <       5.62202205 Ry

     iteration #  4     ecut=    26.00 Ry     beta= 0.70
     Davidson diagonalization with overlap
     ethr =  1.00E-02,  avg # of iterations =  2.6

     negative rho (up, down):  1.068E-03 0.000E+00

     total cpu time spent up to now is        2.1 secs

     total energy              =     -57.57968840 Ry
     estimated scf accuracy    <       1.94805577 Ry

     iteration #  5     ecut=    26.00 Ry     beta= 0.70
     Davidson diagonalization with overlap
     ethr =  6.09E-03,  avg # of iterations =  1.3

     negative rho (up, down):  1.702E-03 0.000E+00

     total cpu time spent up to now is        2.3 secs

     total energy              =     -57.41154568 Ry
     estimated scf accuracy    <       1.49401443 Ry

     iteration #  6     ecut=    26.00 Ry     beta= 0.70
     Davidson diagonalization with overlap
     ethr =  4.67E-03,  avg # of iterations =  1.4

     negative rho (up, down):  3.554E-03 0.000E+00

     total cpu time spent up to now is        2.4 secs

     total energy              =     -57.18989995 Ry
     estimated scf accuracy    <       1.25049417 Ry

     iteration #  7     ecut=    26.00 Ry     beta= 0.70
     Davidson diagonalization with overlap
     ethr =  3.91E-03,  avg # of iterations =  1.1

     negative rho (up, down):  5.558E-03 0.000E+00

     total cpu time spent up to now is        2.6 secs

     total energy              =     -57.11017144 Ry
     estimated scf accuracy    <       0.70314656 Ry

     iteration #  8     ecut=    26.00 Ry     beta= 0.70
     Davidson diagonalization with overlap
     ethr =  2.20E-03,  avg # of iterations =  1.1

     negative rho (up, down):  2.486E-02 0.000E+00

     total cpu time spent up to now is        2.7 secs

     total energy              =     -56.82187932 Ry
     estimated scf accuracy    <       0.52910787 Ry

     iteration #  9     ecut=    26.00 Ry     beta= 0.70
     Davidson diagonalization with overlap
     ethr =  1.65E-03,  avg # of iterations =  3.1

     negative rho (up, down):  4.826E-02 0.000E+00

     total cpu time spent up to now is        2.9 secs

     total energy              =     -56.78869086 Ry
     estimated scf accuracy    <       0.11854052 Ry

     iteration # 10     ecut=    26.00 Ry     beta= 0.70
     Davidson diagonalization with overlap
     ethr =  3.70E-04,  avg # of iterations =  6.5

     negative rho (up, down):  1.014E-01 0.000E+00

     total cpu time spent up to now is        3.2 secs

     total energy              =     -56.78038853 Ry
     estimated scf accuracy    <       0.02517164 Ry

     iteration # 11     ecut=    26.00 Ry     beta= 0.70
     Davidson diagonalization with overlap
     c_bands:  2 eigenvalues not converged
     c_bands:  1 eigenvalues not converged
     ethr =  7.87E-05,  avg # of iterations = 12.0

     negative rho (up, down):  6.284E-02 0.000E+00

     total cpu time spent up to now is        3.5 secs

     total energy              =     -56.74584862 Ry
     estimated scf accuracy    <       0.07820542 Ry

     iteration # 12     ecut=    26.00 Ry     beta= 0.70
     Davidson diagonalization with overlap
     c_bands:  1 eigenvalues not converged
     c_bands:  1 eigenvalues not converged
     c_bands:  1 eigenvalues not converged
     c_bands:  2 eigenvalues not converged
     c_bands:  1 eigenvalues not converged
     c_bands:  1 eigenvalues not converged
     ethr =  7.87E-05,  avg # of iterations = 10.5

     negative rho (up, down):  6.329E-02 0.000E+00

     total cpu time spent up to now is        3.9 secs

     total energy              =     -56.79485362 Ry
     estimated scf accuracy    <       0.00995640 Ry

     iteration # 13     ecut=    26.00 Ry     beta= 0.70
     Davidson diagonalization with overlap
     ethr =  3.11E-05,  avg # of iterations =  4.9

     negative rho (up, down):  7.343E-02 0.000E+00

     total cpu time spent up to now is        4.1 secs

     total energy              =     -56.78924144 Ry
     estimated scf accuracy    <       0.01173136 Ry

     iteration # 14     ecut=    26.00 Ry     beta= 0.70
     Davidson diagonalization with overlap
     ethr =  3.11E-05,  avg # of iterations =  4.1

     negative rho (up, down):  7.446E-02 0.000E+00

     total cpu time spent up to now is        4.3 secs

     total energy              =     -56.78906652 Ry
     estimated scf accuracy    <       0.00401852 Ry

     iteration # 15     ecut=    26.00 Ry     beta= 0.70
     Davidson diagonalization with overlap
     ethr =  1.26E-05,  avg # of iterations =  2.1

     negative rho (up, down):  7.596E-02 0.000E+00

     total cpu time spent up to now is        4.4 secs

     total energy              =     -56.78861377 Ry
     estimated scf accuracy    <       0.00335158 Ry

     iteration # 16     ecut=    26.00 Ry     beta= 0.70
     Davidson diagonalization with overlap
     c_bands:  1 eigenvalues not converged
     ethr =  1.05E-05,  avg # of iterations =  5.2

     negative rho (up, down):  7.919E-02 0.000E+00

     total cpu time spent up to now is        4.7 secs

     total energy              =     -56.78775615 Ry
     estimated scf accuracy    <       0.00262621 Ry

     iteration # 17     ecut=    26.00 Ry     beta= 0.70
     Davidson diagonalization with overlap
     c_bands:  1 eigenvalues not converged
     ethr =  8.21E-06,  avg # of iterations =  6.0

     negative rho (up, down):  8.391E-02 0.000E+00

     total cpu time spent up to now is        4.9 secs

     total energy              =     -56.78695225 Ry
     estimated scf accuracy    <       0.00145890 Ry

     iteration # 18     ecut=    26.00 Ry     beta= 0.70
     Davidson diagonalization with overlap
     ethr =  4.56E-06,  avg # of iterations =  7.7

     negative rho (up, down):  8.637E-02 0.000E+00

     total cpu time spent up to now is        5.1 secs

     total energy              =     -56.78679289 Ry
     estimated scf accuracy    <       0.00035752 Ry

     iteration # 19     ecut=    26.00 Ry     beta= 0.70
     Davidson diagonalization with overlap
     ethr =  1.12E-06,  avg # of iterations =  7.1

     negative rho (up, down):  8.741E-02 0.000E+00

     total cpu time spent up to now is        5.4 secs

     total energy              =     -56.78678413 Ry
     estimated scf accuracy    <       0.00006604 Ry

     iteration # 20     ecut=    26.00 Ry     beta= 0.70
     Davidson diagonalization with overlap
     ethr =  2.06E-07,  avg # of iterations =  4.1

     negative rho (up, down):  8.861E-02 0.000E+00

     total cpu time spent up to now is        5.6 secs

     total energy              =     -56.78677231 Ry
     estimated scf accuracy    <       0.00001808 Ry

     iteration # 21     ecut=    26.00 Ry     beta= 0.70
     Davidson diagonalization with overlap
     ethr =  5.65E-08,  avg # of iterations =  7.3

     negative rho (up, down):  8.858E-02 0.000E+00

     total cpu time spent up to now is        5.9 secs

     total energy              =     -56.78677612 Ry
     estimated scf accuracy    <       0.00000035 Ry

     iteration # 22     ecut=    26.00 Ry     beta= 0.70
     Davidson diagonalization with overlap
     ethr =  1.10E-09,  avg # of iterations =  5.9

     negative rho (up, down):  8.858E-02 0.000E+00

     total cpu time spent up to now is        6.2 secs

     total energy              =     -56.78677649 Ry
     estimated scf accuracy    <       0.00000022 Ry

     iteration # 23     ecut=    26.00 Ry     beta= 0.70
     Davidson diagonalization with overlap
     ethr =  6.95E-10,  avg # of iterations =  1.5

     negative rho (up, down):  8.860E-02 0.000E+00

     total cpu time spent up to now is        6.3 secs

     total energy              =     -56.78677653 Ry
     estimated scf accuracy    <       0.00000006 Ry

     iteration # 24     ecut=    26.00 Ry     beta= 0.70
     Davidson diagonalization with overlap
     ethr =  1.74E-10,  avg # of iterations =  3.5

     negative rho (up, down):  8.859E-02 0.000E+00

     total cpu time spent up to now is        6.6 secs

     End of self-consistent calculation

          k = 0.0000 0.0000 0.0000 (  1199 PWs)   bands (ev):

   -36.1527 -33.2661 -33.2661 -23.3623 -16.6610 -16.6610 -14.7235 -13.0813
   -13.0813  -8.2471  -5.8084  -3.0333  -0.6738  -0.6738   2.9000   6.0035
     6.0352   7.7286   7.7752   9.8174

          k = 0.0000 0.0962 0.0000 (  1187 PWs)   bands (ev):

   -36.5549 -33.4517 -32.7921 -23.2822 -16.5897 -16.1439 -14.3777 -13.3127
   -13.2318  -7.7669  -5.8358  -2.8393  -0.9660  -0.1291   3.2623   6.2211
     6.2296   7.7992   7.9230   9.1464

          k = 0.0000 0.1925 0.0000 (  1187 PWs)   bands (ev):

   -37.3570 -33.9221 -31.8795 -23.1839 -16.3163 -14.8756 -14.3596 -13.7249
   -13.5102  -6.7144  -6.3111  -2.5903  -1.4189   1.2661   3.4128   5.8789
     6.6527   6.9025   7.8684   8.5445

          k = 0.0000 0.2887 0.0000 (  1183 PWs)   bands (ev):

   -38.1274 -34.5126 -31.0056 -22.8989 -15.6486 -14.8708 -14.8455 -13.0018
   -12.2516  -6.6475  -5.4378  -2.2473  -1.5890   2.4411   3.0086   3.6506
     7.0949   7.9961   8.5620   9.5588

          k = 0.0000 0.3849 0.0000 (  1188 PWs)   bands (ev):

   -38.7277 -35.0375 -30.3559 -22.4934 -15.6992 -15.4476 -14.4967 -12.1231
    -9.7307  -7.3068  -4.7996  -3.0935  -1.3235   1.7077   3.0388   4.3088
     7.4734   8.4005   9.0623   9.7625

          k = 0.0000 0.4811 0.0000 (  1198 PWs)   bands (ev):

   -39.1593 -35.3870 -29.9854 -22.0550 -16.4187 -15.8474 -12.9467 -11.2771
    -8.6615  -7.2733  -5.7070  -3.0664  -1.5612   2.1810   3.4349   4.4133
     6.1799   6.3913   9.0542  10.8278

          k = 0.0000-0.5774 0.0000 (  1194 PWs)   bands (ev):

   -39.2649 -35.4499 -29.8855 -21.8718 -16.7516 -15.9855 -11.2976 -11.2533
   -10.2980  -6.1915  -6.0050  -3.0311  -1.7788   2.9456   3.6247   3.8523
     5.0064   5.8852   9.7005  11.4794

          k = 0.0833 0.1443 0.0000 (  1189 PWs)   bands (ev):

   -37.1294 -33.8189 -32.0913 -23.2179 -16.4616 -15.2145 -14.3004 -13.5965
   -13.4775  -7.0168  -6.1047  -2.6446  -1.3310   0.8449   3.5127   6.4887
     6.5984   6.8218   7.7168   8.3262

          k = 0.0833 0.2406 0.0000 (  1190 PWs)   bands (ev):

   -37.8477 -34.4214 -31.1581 -23.0230 -16.0908 -15.1212 -13.9986 -13.3379
   -12.9016  -6.3980  -5.8447  -2.1631  -1.6959   2.4345   2.9436   4.2391
     6.5898   7.5423   8.0406   9.1066

          k = 0.0833 0.3368 0.0000 (  1184 PWs)   bands (ev):

   -38.4491 -35.0615 -30.3118 -22.6715 -16.0236 -15.2862 -14.4869 -12.4595
   -10.5930  -6.8503  -4.7884  -2.6114  -1.4864   1.6890   2.9896   4.0209
     6.7571   8.8798   9.2078   9.6681

          k = 0.0833 0.4330 0.0000 (  1190 PWs)   bands (ev):

   -38.9290 -35.5528 -29.7358 -22.2168 -16.8898 -14.9302 -14.0604 -11.5719
    -8.8250  -7.1135  -4.9233  -3.1156  -1.4808   1.7309   2.6375   5.1682
     6.2017   7.4342   9.4664  10.6678

          k = 0.0833 0.5292 0.0000 (  1200 PWs)   bands (ev):

   -39.1926 -35.8247 -29.4515 -21.8575 -17.4768 -15.1839 -12.3932 -11.0990
   -10.1046  -6.0836  -5.2391  -2.8555  -1.6296   2.5010   2.8067   4.2131
     5.2325   6.5699   9.6933  11.7765

          k = 0.1667 0.2887 0.0000 (  1184 PWs)   bands (ev):

   -38.3144 -35.1657 -30.1677 -22.7425 -16.1788 -15.7142 -13.9947 -12.6987
   -10.7927  -6.7612  -4.8329  -2.3095  -1.7410   1.6051   3.1502   3.8474
     6.2663   8.6519   9.0021   9.9957

          k = 0.1667 0.3849 0.0000 (  1178 PWs)   bands (ev):

   -38.6543 -35.8937 -29.2508 -22.3306 -17.2801 -14.9976 -14.1237 -11.7337
    -9.0761  -6.7091  -4.0540  -3.0200  -1.6681   1.2110   2.3081   5.1775
     6.2650   8.1032  10.2214  10.5187

          k = 0.1667 0.4811 0.0000 (  1198 PWs)   bands (ev):

   -38.9367 -36.4484 -28.6498 -21.8501 -18.2169 -14.3381 -13.8568 -11.1566
    -9.9396  -5.8425  -3.9961  -2.5895  -1.5588   1.6869   1.9756   4.8704
     5.9678   6.9336  10.6606  12.1432

          k = 0.1667 0.5774 0.0000 (  1196 PWs)   bands (ev):

   -39.0130 -36.6369 -28.4329 -21.5681 -18.6339 -14.3825 -12.6603 -11.8133
   -10.2769  -5.7970  -3.7709  -2.5300  -0.5939   1.7551   2.4433   3.9902
     4.4504   7.9644  10.2531  12.9130

          k = 0.2500 0.4330 0.0000 (  1180 PWs)   bands (ev):

   -38.7504 -36.7563 -28.2408 -21.8729 -18.4758 -14.5026 -13.9429 -11.2570
    -9.8715  -5.7192  -3.5502  -2.0879  -1.9195   1.1994   1.8535   5.0641
     6.5918   7.1337  11.8931  12.0974

          k = 0.2500 0.5292 0.0000 (  1200 PWs)   bands (ev):

   -38.6808 -37.3496 -27.6209 -21.3086 -19.4494 -13.9232 -13.6146 -12.0123
   -10.4172  -5.3783  -3.7979  -2.3845   0.9655   1.0120   2.3784   3.8591
     5.0513   8.7581   9.7193  11.3465

          k = 0.3333 0.5774 0.0000 (  1212 PWs)   bands (ev):

   -38.1629 -38.1629 -27.1886 -20.5106 -20.5102 -13.7717 -13.1100 -13.1091
   -10.3607  -4.6255  -4.6248  -2.2526   0.7492   2.7922   2.7929   4.6653
     4.6654   6.1443  10.4899  10.4919

     the Fermi energy is     5.2551 ev

!    total energy              =     -56.78677654 Ry
     estimated scf accuracy    <          8.7E-09 Ry
     smearing contrib. (-TS)   =      -0.00069443 Ry
     internal energy E=F+TS    =     -56.78608211 Ry

     The total energy is F=E-TS. E is the sum of the following terms:
     one-electron contribution =   -2240.08771514 Ry
     hartree contribution      =    1130.98363906 Ry
     xc contribution           =     -44.57662685 Ry
     ewald contribution        =    1096.89462082 Ry

     convergence has been achieved in  24 iterations

     negative rho (up, down):  8.859E-02 0.000E+00

     Forces acting on atoms (cartesian axes, Ry/au):

     atom    1 type  1   force =     0.00000000    0.00000000  -26.75541253
     atom    2 type  1   force =     0.00000000   -0.00000000   -2.87269519
     atom    3 type  1   force =     0.00000000    0.00000000   -2.44484446
     atom    4 type  1   force =     0.00000000    0.00000000   -1.04381681
     atom    5 type  1   force =     0.00000000    0.00000000    1.04518458
     atom    6 type  1   force =     0.00000000    0.00000000    2.44377197
     atom    7 type  1   force =     0.00000000   -0.00000000    2.87127436
     atom    8 type  1   force =     0.00000000   -0.00000000   26.75653808

     Total force =    38.241238     Total SCF correction =     0.000375


     Computing stress (Cartesian axis) and pressure


     negative rho (up, down):  8.859E-02 0.000E+00
          total   stress  (Ry/bohr**3)                   (kbar)     P=     8609.32
   0.01812775   0.00000000   0.00000000         2666.68        0.00        0.00
   0.00000000   0.01812775   0.00000000            0.00     2666.68        0.00
   0.00000000   0.00000000   0.13931935            0.00        0.00    20494.58


     Writing all to output data dir /run/media/rfa/SATA/Skripsi/DFT/Graphene-copy/tmp/gr-ab-4L.save/ :
     XML data file, charge density, pseudopotentials, collected wavefunctions

     init_run     :      0.34s CPU      0.43s WALL (       1 calls)
     electrons    :     11.02s CPU      6.05s WALL (       1 calls)
     forces       :      0.04s CPU      0.02s WALL (       1 calls)
     stress       :      0.13s CPU      0.07s WALL (       1 calls)

     Called by init_run:
     wfcinit      :      0.18s CPU      0.10s WALL (       1 calls)
     potinit      :      0.00s CPU      0.00s WALL (       1 calls)
     hinit0       :      0.16s CPU      0.31s WALL (       1 calls)

     Called by electrons:
     c_bands      :      9.82s CPU      5.38s WALL (      24 calls)
     sum_band     :      0.98s CPU      0.55s WALL (      24 calls)
     v_of_rho     :      0.08s CPU      0.05s WALL (      25 calls)
     newd         :      0.07s CPU      0.04s WALL (      25 calls)
     mix_rho      :      0.04s CPU      0.02s WALL (      24 calls)

     Called by c_bands:
     init_us_2    :      0.19s CPU      0.10s WALL (     969 calls)
     cegterg      :      9.34s CPU      5.08s WALL (     456 calls)

     Called by *egterg:
     cdiaghg      :      2.88s CPU      1.49s WALL (    2906 calls)
     h_psi        :      5.07s CPU      2.85s WALL (    2925 calls)
     s_psi        :      0.21s CPU      0.11s WALL (    2925 calls)
     g_psi        :      0.06s CPU      0.03s WALL (    2450 calls)

     Called by h_psi:
     h_psi:calbec :      0.79s CPU      0.42s WALL (    2925 calls)
     vloc_psi     :      3.90s CPU      2.21s WALL (    2925 calls)
     add_vuspsi   :      0.30s CPU      0.15s WALL (    2925 calls)

     General routines
     calbec       :      0.98s CPU      0.52s WALL (    3704 calls)
     fft          :      0.17s CPU      0.32s WALL (     300 calls)
     ffts         :      0.00s CPU      0.00s WALL (      24 calls)
     fftw         :      3.73s CPU      2.09s WALL (   63854 calls)

     Parallel routines

     PWSCF        :     11.63s CPU      6.80s WALL


   This run was terminated on:  15:13:40  16Apr2025            

=------------------------------------------------------------------------------=
   JOB DONE.
=------------------------------------------------------------------------------=
