
     Program PWSCF v.7.4.1 starts on 16Apr2025 at 15:19:23 

     This program is part of the open-source Quantum ESPRESSO suite
     for quantum simulation of materials; please cite
         "P. Giannozzi et al., J. Phys.:Condens. Matter 21 395502 (2009);
         "P. Giannozzi et al., J. Phys.:Condens. Matter 29 465901 (2017);
         "P. Giannozzi et al., J. Chem. Phys. 152 154105 (2020);
          URL http://www.quantum-espresso.org", 
     in publications or presentations arising from this work. More details at
     http://www.quantum-espresso.org/quote

     Parallel version (MPI), running on     7 processors

     MPI processes distributed on     1 nodes
     14608 MiB available memory on the printing compute node when the environment starts

     Waiting for input...
     Reading input from standard input

     Current dimensions of program PWSCF are:
     Max number of different atomic species (ntypx) = 10
     Max number of k-points (npk) =  40000
     Max angular momentum in pseudopotentials (lmaxx) =  4

     R & G space division:  proc/nbgrp/npool/nimage =       7
     Subspace diagonalization in iterative solution of the eigenvalue problem:
     a serial algorithm will be used


     Parallelization info
     --------------------
     sticks:   dense  smooth     PW     G-vecs:    dense   smooth      PW
     Min          67      67     21                 7315     7315    1227
     Max          68      68     22                 7338     7338    1238
     Sum         475     475    151                51311    51311    8639

     Using Slab Decomposition



     bravais-lattice index     =            4
     lattice parameter (alat)  =       4.6561  a.u.
     unit-cell volume          =     532.1899 (a.u.)^3
     number of atoms/cell      =            8
     number of atomic types    =            1
     number of electrons       =        32.00
     number of Kohn-Sham states=           20
     kinetic-energy cutoff     =      80.0000  Ry
     charge density cutoff     =     320.0000  Ry
     scf convergence threshold =      1.0E-08
     mixing beta               =       0.7000
     number of iterations used =            8  plain     mixing
     Exchange-correlation= PBE
                           (   1   4   3   4   0   0   0)

     celldm(1)=   4.656107  celldm(2)=   0.000000  celldm(3)=   6.087896
     celldm(4)=   0.000000  celldm(5)=   0.000000  celldm(6)=   0.000000

     crystal axes: (cart. coord. in units of alat)
               a(1) = (   1.000000   0.000000   0.000000 )  
               a(2) = (  -0.500000   0.866025   0.000000 )  
               a(3) = (   0.000000   0.000000   6.087896 )  

     reciprocal axes: (cart. coord. in units 2 pi/alat)
               b(1) = (  1.000000  0.577350 -0.000000 )  
               b(2) = (  0.000000  1.154701  0.000000 )  
               b(3) = (  0.000000 -0.000000  0.164260 )  


     PseudoPot. # 1 for C  read from file:
     /run/media/rfa/SATA/Skripsi/DFT/Graphene-copy/pseudo/C.pbe-n-rrkjus_psl.0.1.UPF
     MD5 check sum: 96a6a315177d77e6c95bf6fd3870f9e3
     Pseudo is Ultrasoft + core correction, Zval =  4.0
     Generated using &quot;atomic&quot; code by A. Dal Corso  v.6.3MaX
     Using radial grid of 1073 points,  4 beta functions with: 
                l(1) =   0
                l(2) =   0
                l(3) =   1
                l(4) =   1
     Q(r) pseudized with 0 coefficients 


     atomic species   valence    mass     pseudopotential
     C                 4.00    12.01070     C ( 1.00)

      6 Sym. Ops. (no inversion) found



   Cartesian axes

     site n.     atom                  positions (alat units)
         1        C      tau(   1) = (   0.0000000   0.5773503   3.0439478  )
         2        C      tau(   2) = (   0.5000000   0.2886751   3.0439478  )
         3        C      tau(   3) = (   0.0000000   0.0000000   3.2468777  )
         4        C      tau(   4) = (   0.0000000   0.5773503   3.2468777  )
         5        C      tau(   5) = (   0.0000000   0.5773503   3.4498075  )
         6        C      tau(   6) = (   0.5000000   0.2886751   3.4498075  )
         7        C      tau(   7) = (   0.0000000   0.0000000   3.6527374  )
         8        C      tau(   8) = (   0.0000000   0.5773503   3.6527374  )

     number of k points=    19  Marzari-Vanderbilt smearing, width (Ry)=  0.0200
                       cart. coord. in units 2pi/alat
        k(    1) = (   0.0000000   0.0000000   0.0000000), wk =   0.0138889
        k(    2) = (   0.0000000   0.0962250   0.0000000), wk =   0.0833333
        k(    3) = (   0.0000000   0.1924501   0.0000000), wk =   0.0833333
        k(    4) = (   0.0000000   0.2886751   0.0000000), wk =   0.0833333
        k(    5) = (   0.0000000   0.3849002   0.0000000), wk =   0.0833333
        k(    6) = (   0.0000000   0.4811252   0.0000000), wk =   0.0833333
        k(    7) = (   0.0000000  -0.5773503   0.0000000), wk =   0.0416667
        k(    8) = (   0.0833333   0.1443376   0.0000000), wk =   0.0833333
        k(    9) = (   0.0833333   0.2405626   0.0000000), wk =   0.1666667
        k(   10) = (   0.0833333   0.3367877   0.0000000), wk =   0.1666667
        k(   11) = (   0.0833333   0.4330127   0.0000000), wk =   0.1666667
        k(   12) = (   0.0833333   0.5292377   0.0000000), wk =   0.1666667
        k(   13) = (   0.1666667   0.2886751   0.0000000), wk =   0.0833333
        k(   14) = (   0.1666667   0.3849002   0.0000000), wk =   0.1666667
        k(   15) = (   0.1666667   0.4811252   0.0000000), wk =   0.1666667
        k(   16) = (   0.1666667   0.5773503   0.0000000), wk =   0.0833333
        k(   17) = (   0.2500000   0.4330127   0.0000000), wk =   0.0833333
        k(   18) = (   0.2500000   0.5292377   0.0000000), wk =   0.1666667
        k(   19) = (   0.3333333   0.5773503   0.0000000), wk =   0.0277778

     Dense  grid:    51311 G-vectors     FFT dimensions: (  27,  27, 162)

     Estimated max dynamical RAM per process >      18.49 MB

     Estimated total dynamical RAM >     129.46 MB

     Check: negative core charge=   -0.000002

     Initial potential from superposition of free atoms

     starting charge      31.9997, renormalised to      32.0000

     negative rho (up, down):  9.271E-05 0.000E+00
     Starting wfcs are   32 randomized atomic wfcs

     total cpu time spent up to now is        0.9 secs

     per-process dynamical memory:    18.0 Mb

     Self-consistent Calculation

     iteration #  1     ecut=    80.00 Ry     beta= 0.70
     Davidson diagonalization with overlap
     ethr =  1.00E-02,  avg # of iterations = 10.6

     negative rho (up, down):  6.666E-04 0.000E+00

     total cpu time spent up to now is        4.3 secs

     total energy              =     -40.95522514 Ry
     estimated scf accuracy    <      39.21952758 Ry

     iteration #  2     ecut=    80.00 Ry     beta= 0.70
     Davidson diagonalization with overlap
     c_bands:  1 eigenvalues not converged
     c_bands:  2 eigenvalues not converged
     ethr =  1.00E-02,  avg # of iterations = 17.6

     total cpu time spent up to now is        9.0 secs

     total energy              =     -24.76233069 Ry
     estimated scf accuracy    <     138.06715740 Ry

     iteration #  3     ecut=    80.00 Ry     beta= 0.70
     Davidson diagonalization with overlap
     c_bands:  2 eigenvalues not converged
     c_bands:  3 eigenvalues not converged
     c_bands:  2 eigenvalues not converged
     ethr =  1.00E-02,  avg # of iterations = 15.0

     total cpu time spent up to now is       13.4 secs

     total energy              =     -59.22135308 Ry
     estimated scf accuracy    <       9.92076614 Ry

     iteration #  4     ecut=    80.00 Ry     beta= 0.70
     Davidson diagonalization with overlap
     ethr =  1.00E-02,  avg # of iterations =  4.9

     total cpu time spent up to now is       14.7 secs

     total energy              =     -59.85528283 Ry
     estimated scf accuracy    <       2.14451168 Ry

     iteration #  5     ecut=    80.00 Ry     beta= 0.70
     Davidson diagonalization with overlap
     ethr =  6.70E-03,  avg # of iterations =  2.5

     total cpu time spent up to now is       15.8 secs

     total energy              =     -59.51837239 Ry
     estimated scf accuracy    <       1.32657280 Ry

     iteration #  6     ecut=    80.00 Ry     beta= 0.70
     Davidson diagonalization with overlap
     ethr =  4.15E-03,  avg # of iterations =  4.7

     total cpu time spent up to now is       17.2 secs

     total energy              =     -59.73597033 Ry
     estimated scf accuracy    <       0.54457900 Ry

     iteration #  7     ecut=    80.00 Ry     beta= 0.70
     Davidson diagonalization with overlap
     ethr =  1.70E-03,  avg # of iterations =  6.1

     total cpu time spent up to now is       19.0 secs

     total energy              =     -60.01803199 Ry
     estimated scf accuracy    <       0.36726708 Ry

     iteration #  8     ecut=    80.00 Ry     beta= 0.70
     Davidson diagonalization with overlap
     ethr =  1.15E-03,  avg # of iterations =  2.7

     total cpu time spent up to now is       20.2 secs

     total energy              =     -60.02266977 Ry
     estimated scf accuracy    <       0.39791891 Ry

     iteration #  9     ecut=    80.00 Ry     beta= 0.70
     Davidson diagonalization with overlap
     ethr =  1.15E-03,  avg # of iterations =  1.2

     total cpu time spent up to now is       21.2 secs

     total energy              =     -59.82360851 Ry
     estimated scf accuracy    <       0.34468767 Ry

     iteration # 10     ecut=    80.00 Ry     beta= 0.70
     Davidson diagonalization with overlap
     ethr =  1.08E-03,  avg # of iterations =  4.2

     total cpu time spent up to now is       22.5 secs

     total energy              =     -59.85556944 Ry
     estimated scf accuracy    <       0.03413876 Ry

     iteration # 11     ecut=    80.00 Ry     beta= 0.70
     Davidson diagonalization with overlap
     c_bands:  2 eigenvalues not converged
     c_bands:  1 eigenvalues not converged
     c_bands:  2 eigenvalues not converged
     c_bands:  1 eigenvalues not converged
     c_bands:  1 eigenvalues not converged
     c_bands:  2 eigenvalues not converged
     ethr =  1.07E-04,  avg # of iterations = 15.7

     negative rho (up, down):  7.282E-04 0.000E+00

     total cpu time spent up to now is       26.2 secs

     total energy              =     -59.92185743 Ry
     estimated scf accuracy    <       0.02618396 Ry

     iteration # 12     ecut=    80.00 Ry     beta= 0.70
     Davidson diagonalization with overlap
     c_bands:  1 eigenvalues not converged
     c_bands:  3 eigenvalues not converged
     c_bands:  1 eigenvalues not converged
     c_bands:  1 eigenvalues not converged
     c_bands:  1 eigenvalues not converged
     c_bands:  1 eigenvalues not converged
     ethr =  8.18E-05,  avg # of iterations = 13.2

     negative rho (up, down):  1.765E-03 0.000E+00

     total cpu time spent up to now is       28.8 secs

     total energy              =     -59.95089099 Ry
     estimated scf accuracy    <       0.13750025 Ry

     iteration # 13     ecut=    80.00 Ry     beta= 0.70
     Davidson diagonalization with overlap
     ethr =  8.18E-05,  avg # of iterations =  3.9

     negative rho (up, down):  1.442E-04 0.000E+00

     total cpu time spent up to now is       30.0 secs

     total energy              =     -59.95630203 Ry
     estimated scf accuracy    <       0.14718269 Ry

     iteration # 14     ecut=    80.00 Ry     beta= 0.70
     Davidson diagonalization with overlap
     ethr =  8.18E-05,  avg # of iterations =  2.2

     negative rho (up, down):  1.588E-05 0.000E+00

     total cpu time spent up to now is       31.1 secs

     total energy              =     -60.03933989 Ry
     estimated scf accuracy    <       0.17277025 Ry

     iteration # 15     ecut=    80.00 Ry     beta= 0.70
     Davidson diagonalization with overlap
     c_bands:  3 eigenvalues not converged
     c_bands:  1 eigenvalues not converged
     ethr =  8.18E-05,  avg # of iterations = 13.2

     total cpu time spent up to now is       33.8 secs

     total energy              =     -59.84531391 Ry
     estimated scf accuracy    <       1.92488180 Ry

     iteration # 16     ecut=    80.00 Ry     beta= 0.70
     Davidson diagonalization with overlap
     c_bands:  2 eigenvalues not converged
     c_bands:  1 eigenvalues not converged
     c_bands:  2 eigenvalues not converged
     c_bands:  2 eigenvalues not converged
     ethr =  8.18E-05,  avg # of iterations = 12.2

     total cpu time spent up to now is       36.2 secs

     total energy              =     -59.92849413 Ry
     estimated scf accuracy    <       0.30580840 Ry

     iteration # 17     ecut=    80.00 Ry     beta= 0.70
     Davidson diagonalization with overlap
     c_bands:  2 eigenvalues not converged
     c_bands:  1 eigenvalues not converged
     c_bands:  1 eigenvalues not converged
     c_bands:  1 eigenvalues not converged
     c_bands:  1 eigenvalues not converged
     ethr =  8.18E-05,  avg # of iterations =  9.5

     total cpu time spent up to now is       38.0 secs

     total energy              =     -59.91152431 Ry
     estimated scf accuracy    <       0.14202820 Ry

     iteration # 18     ecut=    80.00 Ry     beta= 0.70
     Davidson diagonalization with overlap
     c_bands:  1 eigenvalues not converged
     c_bands:  1 eigenvalues not converged
     c_bands:  1 eigenvalues not converged
     ethr =  8.18E-05,  avg # of iterations =  9.6

     total cpu time spent up to now is       39.9 secs

     total energy              =     -59.90720335 Ry
     estimated scf accuracy    <       0.05257632 Ry

     iteration # 19     ecut=    80.00 Ry     beta= 0.70
     Davidson diagonalization with overlap
     c_bands:  2 eigenvalues not converged
     c_bands:  1 eigenvalues not converged
     ethr =  8.18E-05,  avg # of iterations =  6.4

     negative rho (up, down):  1.656E-05 0.000E+00

     total cpu time spent up to now is       41.4 secs

     total energy              =     -59.90507539 Ry
     estimated scf accuracy    <       0.02297969 Ry

     iteration # 20     ecut=    80.00 Ry     beta= 0.70
     Davidson diagonalization with overlap
     ethr =  7.18E-05,  avg # of iterations =  4.3

     negative rho (up, down):  2.220E-06 0.000E+00

     total cpu time spent up to now is       42.6 secs

     total energy              =     -59.90434764 Ry
     estimated scf accuracy    <       0.01271173 Ry

     iteration # 21     ecut=    80.00 Ry     beta= 0.70
     Davidson diagonalization with overlap
     c_bands:  1 eigenvalues not converged
     ethr =  3.97E-05,  avg # of iterations =  6.1

     total cpu time spent up to now is       44.1 secs

     total energy              =     -59.90311031 Ry
     estimated scf accuracy    <       0.00659583 Ry

     iteration # 22     ecut=    80.00 Ry     beta= 0.70
     Davidson diagonalization with overlap
     c_bands:  2 eigenvalues not converged
     c_bands:  2 eigenvalues not converged
     ethr =  2.06E-05,  avg # of iterations = 10.4

     total cpu time spent up to now is       46.6 secs

     total energy              =     -59.90801594 Ry
     estimated scf accuracy    <       0.00618830 Ry

     iteration # 23     ecut=    80.00 Ry     beta= 0.70
     Davidson diagonalization with overlap
     c_bands:  2 eigenvalues not converged
     ethr =  1.93E-05,  avg # of iterations =  3.6

     total cpu time spent up to now is       47.8 secs

     total energy              =     -59.90739199 Ry
     estimated scf accuracy    <       0.00448139 Ry

     iteration # 24     ecut=    80.00 Ry     beta= 0.70
     Davidson diagonalization with overlap
     c_bands:  1 eigenvalues not converged
     ethr =  1.40E-05,  avg # of iterations =  2.1

     negative rho (up, down):  5.514E-04 0.000E+00

     total cpu time spent up to now is       48.9 secs

     total energy              =     -59.90613608 Ry
     estimated scf accuracy    <       0.00249396 Ry

     iteration # 25     ecut=    80.00 Ry     beta= 0.70
     Davidson diagonalization with overlap
     ethr =  7.79E-06,  avg # of iterations =  9.3

     negative rho (up, down):  6.910E-04 0.000E+00

     total cpu time spent up to now is       50.7 secs

     total energy              =     -59.90678304 Ry
     estimated scf accuracy    <       0.00023994 Ry

     iteration # 26     ecut=    80.00 Ry     beta= 0.70
     Davidson diagonalization with overlap
     c_bands:  1 eigenvalues not converged
     c_bands:  1 eigenvalues not converged
     ethr =  7.50E-07,  avg # of iterations =  9.9

     negative rho (up, down):  6.881E-04 0.000E+00

     total cpu time spent up to now is       53.4 secs

     total energy              =     -59.90706696 Ry
     estimated scf accuracy    <       0.00003709 Ry

     iteration # 27     ecut=    80.00 Ry     beta= 0.70
     Davidson diagonalization with overlap
     c_bands:  1 eigenvalues not converged
     c_bands:  1 eigenvalues not converged
     ethr =  1.16E-07,  avg # of iterations =  9.2

     negative rho (up, down):  6.926E-04 0.000E+00

     total cpu time spent up to now is       55.8 secs

     total energy              =     -59.90708577 Ry
     estimated scf accuracy    <       0.00004092 Ry

     iteration # 28     ecut=    80.00 Ry     beta= 0.70
     Davidson diagonalization with overlap
     ethr =  1.16E-07,  avg # of iterations =  2.5

     negative rho (up, down):  6.956E-04 0.000E+00

     total cpu time spent up to now is       57.0 secs

     total energy              =     -59.90708970 Ry
     estimated scf accuracy    <       0.00000308 Ry

     iteration # 29     ecut=    80.00 Ry     beta= 0.70
     Davidson diagonalization with overlap
     ethr =  9.64E-09,  avg # of iterations = 13.3

     negative rho (up, down):  6.935E-04 0.000E+00

     total cpu time spent up to now is       60.9 secs

     total energy              =     -59.90710197 Ry
     estimated scf accuracy    <       0.00001500 Ry

     iteration # 30     ecut=    80.00 Ry     beta= 0.70
     Davidson diagonalization with overlap
     ethr =  9.64E-09,  avg # of iterations =  2.0

     negative rho (up, down):  6.921E-04 0.000E+00

     total cpu time spent up to now is       62.0 secs

     total energy              =     -59.90710060 Ry
     estimated scf accuracy    <       0.00001216 Ry

     iteration # 31     ecut=    80.00 Ry     beta= 0.70
     Davidson diagonalization with overlap
     ethr =  9.64E-09,  avg # of iterations =  1.3

     negative rho (up, down):  6.947E-04 0.000E+00

     total cpu time spent up to now is       63.0 secs

     total energy              =     -59.90709994 Ry
     estimated scf accuracy    <       0.00000863 Ry

     iteration # 32     ecut=    80.00 Ry     beta= 0.70
     Davidson diagonalization with overlap
     ethr =  9.64E-09,  avg # of iterations =  1.2

     negative rho (up, down):  6.997E-04 0.000E+00

     total cpu time spent up to now is       64.0 secs

     total energy              =     -59.90709595 Ry
     estimated scf accuracy    <       0.00000636 Ry

     iteration # 33     ecut=    80.00 Ry     beta= 0.70
     Davidson diagonalization with overlap
     ethr =  9.64E-09,  avg # of iterations =  7.3

     negative rho (up, down):  6.979E-04 0.000E+00

     total cpu time spent up to now is       65.9 secs

     total energy              =     -59.90709875 Ry
     estimated scf accuracy    <       0.00000169 Ry

     iteration # 34     ecut=    80.00 Ry     beta= 0.70
     Davidson diagonalization with overlap
     ethr =  5.28E-09,  avg # of iterations =  2.0

     negative rho (up, down):  6.968E-04 0.000E+00

     total cpu time spent up to now is       67.0 secs

     total energy              =     -59.90709881 Ry
     estimated scf accuracy    <       0.00000029 Ry

     iteration # 35     ecut=    80.00 Ry     beta= 0.70
     Davidson diagonalization with overlap
     ethr =  9.05E-10,  avg # of iterations =  7.0

     negative rho (up, down):  6.970E-04 0.000E+00

     total cpu time spent up to now is       69.0 secs

     total energy              =     -59.90709904 Ry
     estimated scf accuracy    <       0.00000002 Ry

     iteration # 36     ecut=    80.00 Ry     beta= 0.70
     Davidson diagonalization with overlap
     ethr =  7.06E-11,  avg # of iterations = 11.7

     negative rho (up, down):  6.968E-04 0.000E+00

     total cpu time spent up to now is       72.7 secs

     total energy              =     -59.90709912 Ry
     estimated scf accuracy    <       0.00000001 Ry

     iteration # 37     ecut=    80.00 Ry     beta= 0.70
     Davidson diagonalization with overlap
     ethr =  4.10E-11,  avg # of iterations =  3.5

     negative rho (up, down):  6.969E-04 0.000E+00

     total cpu time spent up to now is       73.9 secs

     End of self-consistent calculation

          k = 0.0000 0.0000 0.0000 (  6489 PWs)   bands (ev):

   -35.9669 -30.8436 -30.8436 -24.9715 -16.6439 -16.6439 -16.3629 -11.9356
   -11.9356  -8.7791  -6.7357  -5.6486  -0.6440  -0.6440   2.4210   4.2892
     7.9794   8.2120   9.3882  10.7969

          k = 0.0000 0.0962 0.0000 (  6493 PWs)   bands (ev):

   -36.1401 -31.0849 -30.7000 -24.8762 -16.5926 -16.2383 -16.0670 -12.4218
   -12.2185  -8.2901  -6.4821  -5.8501  -0.8320  -0.0608   2.9035   4.4708
     8.1913   8.4004   9.5591  10.0823

          k = 0.0000 0.1925 0.0000 (  6481 PWs)   bands (ev):

   -36.5636 -31.6802 -30.3779 -24.5698 -16.3612 -15.9082 -14.5617 -13.5483
   -12.8010  -7.0798  -6.5041  -5.7514  -0.9919   1.4483   3.4887   4.9616
     6.8745   8.8257   8.9455   9.9773

          k = 0.0000 0.2887 0.0000 (  6429 PWs)   bands (ev):

   -37.0598 -32.3810 -30.0662 -24.0126 -16.2130 -15.5727 -14.3028 -14.0024
   -11.7943  -7.3664  -5.8961  -4.7053  -1.0124   3.0998   3.3380   4.2799
     5.9248   8.5823   9.8702  10.0480

          k = 0.0000 0.3849 0.0000 (  6414 PWs)   bands (ev):

   -37.4928 -32.9900 -29.8647 -23.1965 -17.4247 -14.7672 -14.5807 -13.6203
    -9.1282  -8.4201  -5.2793  -3.9517  -1.2213   2.1689   3.6050   4.8114
     7.0665   7.3713   8.5706  10.2902

          k = 0.0000 0.4811 0.0000 (  6418 PWs)   bands (ev):

   -37.7807 -33.3924 -29.7704 -22.1962 -18.8792 -15.0021 -13.8787 -12.3318
    -9.5885  -6.4965  -5.0642  -4.9121  -0.7308   1.8575   3.9031   4.8784
     6.2689   6.5380   8.6247  11.3060

          k = 0.0000-0.5774 0.0000 (  6386 PWs)   bands (ev):

   -37.8810 -33.5320 -29.7450 -21.4920 -19.7480 -15.1497 -13.4601 -11.1160
   -10.6514  -5.8340  -5.1971  -4.8559  -0.3521   1.7636   4.0311   4.1063
     5.9320   6.1843   9.5464  11.9751

          k = 0.0833 0.1443 0.0000 (  6473 PWs)   bands (ev):

   -36.4325 -31.5593 -30.4069 -24.6772 -16.4922 -16.0089 -14.9765 -13.1537
   -12.7399  -7.4393  -6.2157  -6.0344  -0.9727   0.9558   3.4087   4.8016
     7.6753   8.6357   8.7637   9.9925

          k = 0.0833 0.2406 0.0000 (  6444 PWs)   bands (ev):

   -36.8658 -32.3161 -29.9611 -24.2531 -16.2501 -15.6756 -14.2080 -13.9710
   -12.4597  -6.8854  -6.2437  -5.1433  -0.9998   2.5479   3.4249   4.9149
     5.4117   8.7657   9.4538   9.4949

          k = 0.0833 0.3368 0.0000 (  6420 PWs)   bands (ev):

   -37.2888 -33.0749 -29.5730 -23.5719 -16.6965 -15.4432 -14.4211 -14.2144
   -10.0178  -7.7665  -5.4016  -3.9966  -1.1852   2.2855   3.6796   4.1452
     6.1530   7.7927  10.3302  10.5735

          k = 0.0833 0.4330 0.0000 (  6423 PWs)   bands (ev):

   -37.6088 -33.6588 -29.3283 -22.6495 -18.1240 -15.4034 -14.1179 -13.2396
    -9.1066  -7.0319  -4.9104  -4.1866  -1.2158   1.8867   3.4654   5.1892
     6.3260   6.9791   8.9878  10.8458

          k = 0.0833 0.5292 0.0000 (  6418 PWs)   bands (ev):

   -37.7784 -33.9718 -29.2196 -21.6563 -19.4358 -15.6039 -13.5117 -11.8594
   -10.3747  -5.6119  -4.6792  -4.6441  -0.5742   1.8717   3.6044   4.4306
     5.7946   6.7657   9.6210  10.9196

          k = 0.1667 0.2887 0.0000 (  6421 PWs)   bands (ev):

   -37.1813 -33.2460 -29.2926 -23.7165 -16.3024 -15.7979 -14.6509 -14.3703
   -10.1936  -7.4262  -5.4262  -4.0691  -1.1508   2.2582   3.6478   3.9040
     5.5864   7.9912  10.4121  10.5256

          k = 0.1667 0.3849 0.0000 (  6439 PWs)   bands (ev):

   -37.4104 -34.1169 -28.6865 -22.9342 -17.2586 -16.3379 -14.3313 -13.9211
    -8.7988  -6.9491  -4.7223  -3.4164  -1.7799   1.6602   3.4429   4.4832
     6.0876   7.3149  10.6144  11.7539

          k = 0.1667 0.4811 0.0000 (  6433 PWs)   bands (ev):

   -37.5270 -34.7279 -28.2984 -21.9391 -18.7112 -16.6081 -13.5927 -13.0612
    -9.9202  -5.2896  -4.2429  -3.7034  -1.1515   2.0060   3.1953   5.1171
     5.5281   7.1427  10.3097  10.5567

          k = 0.1667 0.5774 0.0000 (  6408 PWs)   bands (ev):

   -37.5579 -34.9494 -28.1689 -21.1956 -19.6232 -16.7099 -13.2878 -12.0852
   -11.0040  -5.4556  -4.0741  -3.3180   0.0507   2.1830   3.1558   4.1091
     5.2869   8.0459   9.1525  11.1310

          k = 0.2500 0.4330 0.0000 (  6437 PWs)   bands (ev):

   -37.3623 -35.0967 -27.8602 -22.0760 -17.9719 -17.4790 -13.7404 -13.4694
    -9.7358  -5.1303  -4.0030  -3.2104  -1.5623   1.9962   3.2175   4.6753
     6.0682   7.1820  10.7975  11.4699

          k = 0.2500 0.5292 0.0000 (  6421 PWs)   bands (ev):

   -37.1975 -35.7633 -27.3780 -21.0594 -19.2523 -17.7897 -13.1642 -12.7873
   -11.0316  -4.9698  -3.6042  -3.4960   1.1968   2.6355   3.0786   4.4032
     5.2616   7.9884   9.4000   9.8059

          k = 0.3333 0.5774 0.0000 (  6408 PWs)   bands (ev):

   -36.6052 -36.6052 -27.0067 -20.0624 -20.0624 -18.2956 -13.0246 -12.0896
   -12.0895  -4.3736  -4.3736  -3.2087   2.7187   3.4649   3.4650   5.0664
     5.0665   6.0051   8.2861  10.5411

     the Fermi energy is     5.2198 ev

!    total energy              =     -59.90709911 Ry
     estimated scf accuracy    <          5.0E-09 Ry
     smearing contrib. (-TS)   =      -0.00045708 Ry
     internal energy E=F+TS    =     -59.90664204 Ry

     The total energy is F=E-TS. E is the sum of the following terms:
     one-electron contribution =   -2245.93396863 Ry
     hartree contribution      =    1134.16886190 Ry
     xc contribution           =     -45.03615621 Ry
     ewald contribution        =    1096.89462090 Ry

     convergence has been achieved in  37 iterations

     negative rho (up, down):  6.969E-04 0.000E+00

     Forces acting on atoms (cartesian axes, Ry/au):

     atom    1 type  1   force =     0.00000000   -0.00000000  -22.34180133
     atom    2 type  1   force =     0.00000000   -0.00000000   -2.71588911
     atom    3 type  1   force =     0.00000000    0.00000000   -2.19466222
     atom    4 type  1   force =     0.00000000    0.00000000    3.69625923
     atom    5 type  1   force =     0.00000000   -0.00000000   -3.69624161
     atom    6 type  1   force =     0.00000000    0.00000000    2.19491343
     atom    7 type  1   force =     0.00000000   -0.00000000    2.71616074
     atom    8 type  1   force =     0.00000000   -0.00000000   22.34126087

     Total force =    32.403709     Total SCF correction =     0.000176


     Computing stress (Cartesian axis) and pressure


     negative rho (up, down):  6.969E-04 0.000E+00
          total   stress  (Ry/bohr**3)                   (kbar)     P=     9029.34
   0.02669213  -0.00000000   0.00000000         3926.55       -0.00        0.00
  -0.00000000   0.02669213   0.00000000           -0.00     3926.55        0.00
   0.00000000   0.00000000   0.13075640            0.00        0.00    19234.93


     Writing all to output data dir /run/media/rfa/SATA/Skripsi/DFT/Graphene-copy/tmp/gr-ab-4L.save/ :
     XML data file, charge density, pseudopotentials, collected wavefunctions

     init_run     :      0.90s CPU      0.85s WALL (       1 calls)
     electrons    :    128.07s CPU     72.98s WALL (       1 calls)
     forces       :      0.38s CPU      0.21s WALL (       1 calls)
     stress       :      1.50s CPU      0.79s WALL (       1 calls)

     Called by init_run:
     wfcinit      :      0.71s CPU      0.51s WALL (       1 calls)
     potinit      :      0.02s CPU      0.02s WALL (       1 calls)
     hinit0       :      0.13s CPU      0.27s WALL (       1 calls)

     Called by electrons:
     c_bands      :    113.50s CPU     64.70s WALL (      37 calls)
     sum_band     :     13.24s CPU      7.10s WALL (      37 calls)
     v_of_rho     :      0.44s CPU      0.47s WALL (      38 calls)
     newd         :      0.46s CPU      0.40s WALL (      38 calls)
     mix_rho      :      0.36s CPU      0.26s WALL (      37 calls)

     Called by c_bands:
     init_us_2    :      3.44s CPU      1.74s WALL (    1463 calls)
     cegterg      :    109.18s CPU     62.40s WALL (     703 calls)

     Called by *egterg:
     cdiaghg      :      6.53s CPU      3.33s WALL (    5678 calls)
     h_psi        :     74.24s CPU     44.77s WALL (    5697 calls)
     s_psi        :      7.23s CPU      3.66s WALL (    5697 calls)
     g_psi        :      0.68s CPU      0.35s WALL (    4975 calls)

     Called by h_psi:
     h_psi:calbec :      9.25s CPU      5.51s WALL (    5697 calls)
     vloc_psi     :     56.10s CPU     34.69s WALL (    5697 calls)
     add_vuspsi   :      7.81s CPU      4.01s WALL (    5697 calls)

     General routines
     calbec       :     10.94s CPU      6.59s WALL (    6723 calls)
     fft          :      0.29s CPU      0.43s WALL (     443 calls)
     ffts         :      0.03s CPU      0.02s WALL (      37 calls)
     fftw         :     57.31s CPU     34.87s WALL (  123686 calls)

     Parallel routines

     PWSCF        :   2m10.99s CPU   1m15.47s WALL


   This run was terminated on:  15:20:38  16Apr2025            

=------------------------------------------------------------------------------=
   JOB DONE.
=------------------------------------------------------------------------------=
