
     Program PWSCF v.7.4.1 starts on 18Mar2025 at 14:30:25 

     This program is part of the open-source Quantum ESPRESSO suite
     for quantum simulation of materials; please cite
         "P. Giannozzi et al., J. Phys.:Condens. Matter 21 395502 (2009);
         "P. Giannozzi et al., J. Phys.:Condens. Matter 29 465901 (2017);
         "P. Giannozzi et al., J. Chem. Phys. 152 154105 (2020);
          URL http://www.quantum-espresso.org", 
     in publications or presentations arising from this work. More details at
     http://www.quantum-espresso.org/quote

     Parallel version (MPI), running on     7 processors

     MPI processes distributed on     1 nodes
     4550 MiB available memory on the printing compute node when the environment starts

     Waiting for input...
     Reading input from standard input

     Current dimensions of program PWSCF are:
     Max number of different atomic species (ntypx) = 10
     Max number of k-points (npk) =  40000
     Max angular momentum in pseudopotentials (lmaxx) =  4

     R & G space division:  proc/nbgrp/npool/nimage =       7
     Subspace diagonalization in iterative solution of the eigenvalue problem:
     a serial algorithm will be used


     Parallelization info
     --------------------
     sticks:   dense  smooth     PW     G-vecs:    dense   smooth      PW
     Min          51      51     15                 4783     4783     815
     Max          52      52     16                 4800     4800     838
     Sum         361     361    109                33523    33523    5791

     Using Slab Decomposition



     bravais-lattice index     =            4
     lattice parameter (alat)  =       4.6561  a.u.
     unit-cell volume          =     532.1899 (a.u.)^3
     number of atoms/cell      =            6
     number of atomic types    =            1
     number of electrons       =        24.00
     number of Kohn-Sham states=           16
     kinetic-energy cutoff     =      60.0000  Ry
     charge density cutoff     =     240.0000  Ry
     scf convergence threshold =      1.0E-08
     mixing beta               =       0.7000
     number of iterations used =            8  plain     mixing
     Exchange-correlation= PBE
                           (   1   4   3   4   0   0   0)

     celldm(1)=   4.656107  celldm(2)=   0.000000  celldm(3)=   6.087896
     celldm(4)=   0.000000  celldm(5)=   0.000000  celldm(6)=   0.000000

     crystal axes: (cart. coord. in units of alat)
               a(1) = (   1.000000   0.000000   0.000000 )  
               a(2) = (  -0.500000   0.866025   0.000000 )  
               a(3) = (   0.000000   0.000000   6.087896 )  

     reciprocal axes: (cart. coord. in units 2 pi/alat)
               b(1) = (  1.000000  0.577350 -0.000000 )  
               b(2) = (  0.000000  1.154701  0.000000 )  
               b(3) = (  0.000000 -0.000000  0.164260 )  


     PseudoPot. # 1 for C  read from file:
     /run/media/rfa/SATA/Skripsi/DFT/Graphene-copy/pseudo/C.pbe-n-rrkjus_psl.0.1.UPF
     MD5 check sum: 96a6a315177d77e6c95bf6fd3870f9e3
     Pseudo is Ultrasoft + core correction, Zval =  4.0
     Generated using &quot;atomic&quot; code by A. Dal Corso  v.6.3MaX
     Using radial grid of 1073 points,  4 beta functions with: 
                l(1) =   0
                l(2) =   0
                l(3) =   1
                l(4) =   1
     Q(r) pseudized with 0 coefficients 


     atomic species   valence    mass     pseudopotential
     C                 4.00    12.01070     C ( 1.00)

      6 Sym. Ops. (no inversion) found



   Cartesian axes

     site n.     atom                  positions (alat units)
         1        C      tau(   1) = (   0.0000000   0.5773503   3.0439478  )
         2        C      tau(   2) = (   0.5000000   0.2886751   3.0439478  )
         3        C      tau(   3) = (   0.0000000   0.0000000   3.2468777  )
         4        C      tau(   4) = (   0.0000000   0.5773503   3.2468777  )
         5        C      tau(   5) = (   0.0000000   0.5773503   3.4498075  )
         6        C      tau(   6) = (   0.5000000   0.2886751   3.4498075  )

     number of k points=     7  Marzari-Vanderbilt smearing, width (Ry)=  0.0200
                       cart. coord. in units 2pi/alat
        k(    1) = (   0.0000000   0.0000000   0.0000000), wk =   0.0555556
        k(    2) = (   0.0000000   0.1924501   0.0000000), wk =   0.3333333
        k(    3) = (   0.0000000   0.3849002   0.0000000), wk =   0.3333333
        k(    4) = (   0.0000000  -0.5773503   0.0000000), wk =   0.1666667
        k(    5) = (   0.1666667   0.2886751   0.0000000), wk =   0.3333333
        k(    6) = (   0.1666667   0.4811252   0.0000000), wk =   0.6666667
        k(    7) = (   0.3333333   0.5773503   0.0000000), wk =   0.1111111

     Dense  grid:    33523 G-vectors     FFT dimensions: (  24,  24, 144)

     Estimated max dynamical RAM per process >       9.12 MB

     Estimated total dynamical RAM >      63.86 MB

     Check: negative core charge=   -0.000004

     Initial potential from superposition of free atoms

     starting charge      23.9998, renormalised to      24.0000

     negative rho (up, down):  1.394E-04 0.000E+00
     Starting wfcs are   24 randomized atomic wfcs

     total cpu time spent up to now is        0.8 secs

     per-process dynamical memory:    11.2 Mb

     Self-consistent Calculation

     iteration #  1     ecut=    60.00 Ry     beta= 0.70
     Davidson diagonalization with overlap
     ethr =  1.00E-02,  avg # of iterations = 11.0

     negative rho (up, down):  2.858E-03 0.000E+00

     total cpu time spent up to now is        1.2 secs

     total energy              =     -40.17972260 Ry
     estimated scf accuracy    <      19.33537057 Ry

     iteration #  2     ecut=    60.00 Ry     beta= 0.70
     Davidson diagonalization with overlap
     ethr =  1.00E-02,  avg # of iterations = 11.7

     total cpu time spent up to now is        1.7 secs

     total energy              =     -40.72758953 Ry
     estimated scf accuracy    <      24.36156543 Ry

     iteration #  3     ecut=    60.00 Ry     beta= 0.70
     Davidson diagonalization with overlap
     ethr =  1.00E-02,  avg # of iterations =  9.1

     total cpu time spent up to now is        2.0 secs

     total energy              =     -48.09913937 Ry
     estimated scf accuracy    <       1.16543932 Ry

     iteration #  4     ecut=    60.00 Ry     beta= 0.70
     Davidson diagonalization with overlap
     ethr =  4.86E-03,  avg # of iterations =  4.9

     negative rho (up, down):  1.791E-07 0.000E+00

     total cpu time spent up to now is        2.2 secs

     total energy              =     -48.11988129 Ry
     estimated scf accuracy    <       0.55377216 Ry

     iteration #  5     ecut=    60.00 Ry     beta= 0.70
     Davidson diagonalization with overlap
     ethr =  2.31E-03,  avg # of iterations =  4.0

     negative rho (up, down):  1.176E-06 0.000E+00

     total cpu time spent up to now is        2.4 secs

     total energy              =     -48.15075860 Ry
     estimated scf accuracy    <       0.16612553 Ry

     iteration #  6     ecut=    60.00 Ry     beta= 0.70
     Davidson diagonalization with overlap
     ethr =  6.92E-04,  avg # of iterations =  6.0

     negative rho (up, down):  4.587E-06 0.000E+00

     total cpu time spent up to now is        2.7 secs

     total energy              =     -48.21609732 Ry
     estimated scf accuracy    <       0.08944239 Ry

     iteration #  7     ecut=    60.00 Ry     beta= 0.70
     Davidson diagonalization with overlap
     ethr =  3.73E-04,  avg # of iterations =  4.3

     negative rho (up, down):  5.356E-04 0.000E+00

     total cpu time spent up to now is        2.9 secs

     total energy              =     -48.20821993 Ry
     estimated scf accuracy    <       0.03657412 Ry

     iteration #  8     ecut=    60.00 Ry     beta= 0.70
     Davidson diagonalization with overlap
     ethr =  1.52E-04,  avg # of iterations = 11.4

     negative rho (up, down):  6.995E-04 0.000E+00

     total cpu time spent up to now is        3.2 secs

     total energy              =     -48.22561478 Ry
     estimated scf accuracy    <       0.00193208 Ry

     iteration #  9     ecut=    60.00 Ry     beta= 0.70
     Davidson diagonalization with overlap
     c_bands:  2 eigenvalues not converged
     c_bands:  2 eigenvalues not converged
     c_bands:  2 eigenvalues not converged
     ethr =  8.05E-06,  avg # of iterations = 18.1

     negative rho (up, down):  1.537E-03 0.000E+00

     total cpu time spent up to now is        4.0 secs

     total energy              =     -48.23118719 Ry
     estimated scf accuracy    <       0.00280019 Ry

     iteration # 10     ecut=    60.00 Ry     beta= 0.70
     Davidson diagonalization with overlap
     c_bands:  1 eigenvalues not converged
     c_bands:  1 eigenvalues not converged
     ethr =  8.05E-06,  avg # of iterations =  8.3

     negative rho (up, down):  1.981E-03 0.000E+00

     total cpu time spent up to now is        4.2 secs

     total energy              =     -48.23086209 Ry
     estimated scf accuracy    <       0.00109259 Ry

     iteration # 11     ecut=    60.00 Ry     beta= 0.70
     Davidson diagonalization with overlap
     ethr =  4.55E-06,  avg # of iterations = 10.0

     negative rho (up, down):  2.153E-03 0.000E+00

     total cpu time spent up to now is        4.5 secs

     total energy              =     -48.23118953 Ry
     estimated scf accuracy    <       0.00001324 Ry

     iteration # 12     ecut=    60.00 Ry     beta= 0.70
     Davidson diagonalization with overlap
     c_bands:  1 eigenvalues not converged
     c_bands:  1 eigenvalues not converged
     ethr =  5.52E-08,  avg # of iterations = 24.4

     negative rho (up, down):  2.127E-03 0.000E+00

     total cpu time spent up to now is        5.5 secs

     total energy              =     -48.23145644 Ry
     estimated scf accuracy    <       0.00017162 Ry

     iteration # 13     ecut=    60.00 Ry     beta= 0.70
     Davidson diagonalization with overlap
     ethr =  5.52E-08,  avg # of iterations =  2.0

     negative rho (up, down):  2.157E-03 0.000E+00

     total cpu time spent up to now is        5.7 secs

     total energy              =     -48.23144537 Ry
     estimated scf accuracy    <       0.00013067 Ry

     iteration # 14     ecut=    60.00 Ry     beta= 0.70
     Davidson diagonalization with overlap
     ethr =  5.52E-08,  avg # of iterations =  2.4

     negative rho (up, down):  2.136E-03 0.000E+00

     total cpu time spent up to now is        5.9 secs

     total energy              =     -48.23143547 Ry
     estimated scf accuracy    <       0.00010584 Ry

     iteration # 15     ecut=    60.00 Ry     beta= 0.70
     Davidson diagonalization with overlap
     ethr =  5.52E-08,  avg # of iterations =  1.7

     negative rho (up, down):  2.126E-03 0.000E+00

     total cpu time spent up to now is        6.0 secs

     total energy              =     -48.23142510 Ry
     estimated scf accuracy    <       0.00007669 Ry

     iteration # 16     ecut=    60.00 Ry     beta= 0.70
     Davidson diagonalization with overlap
     ethr =  5.52E-08,  avg # of iterations =  3.6

     negative rho (up, down):  2.099E-03 0.000E+00

     total cpu time spent up to now is        6.2 secs

     total energy              =     -48.23140826 Ry
     estimated scf accuracy    <       0.00004802 Ry

     iteration # 17     ecut=    60.00 Ry     beta= 0.70
     Davidson diagonalization with overlap
     ethr =  5.52E-08,  avg # of iterations =  5.1

     negative rho (up, down):  2.110E-03 0.000E+00

     total cpu time spent up to now is        6.4 secs

     total energy              =     -48.23141240 Ry
     estimated scf accuracy    <       0.00000906 Ry

     iteration # 18     ecut=    60.00 Ry     beta= 0.70
     Davidson diagonalization with overlap
     ethr =  3.77E-08,  avg # of iterations =  5.6

     negative rho (up, down):  2.108E-03 0.000E+00

     total cpu time spent up to now is        6.7 secs

     total energy              =     -48.23141667 Ry
     estimated scf accuracy    <       0.00000089 Ry

     iteration # 19     ecut=    60.00 Ry     beta= 0.70
     Davidson diagonalization with overlap
     ethr =  3.69E-09,  avg # of iterations = 10.0

     negative rho (up, down):  2.109E-03 0.000E+00

     total cpu time spent up to now is        7.1 secs

     total energy              =     -48.23141912 Ry
     estimated scf accuracy    <       0.00000006 Ry

     iteration # 20     ecut=    60.00 Ry     beta= 0.70
     Davidson diagonalization with overlap
     ethr =  2.46E-10,  avg # of iterations = 10.4

     negative rho (up, down):  2.110E-03 0.000E+00

     total cpu time spent up to now is        7.5 secs

     total energy              =     -48.23141922 Ry
     estimated scf accuracy    <       0.00000027 Ry

     iteration # 21     ecut=    60.00 Ry     beta= 0.70
     Davidson diagonalization with overlap
     ethr =  2.46E-10,  avg # of iterations =  1.9

     negative rho (up, down):  2.110E-03 0.000E+00

     total cpu time spent up to now is        7.7 secs

     total energy              =     -48.23141916 Ry
     estimated scf accuracy    <       0.00000015 Ry

     iteration # 22     ecut=    60.00 Ry     beta= 0.70
     Davidson diagonalization with overlap
     ethr =  2.46E-10,  avg # of iterations =  5.1

     negative rho (up, down):  2.111E-03 0.000E+00

     total cpu time spent up to now is        7.9 secs

     total energy              =     -48.23141916 Ry
     estimated scf accuracy    <       0.00000003 Ry

     iteration # 23     ecut=    60.00 Ry     beta= 0.70
     Davidson diagonalization with overlap
     ethr =  1.27E-10,  avg # of iterations =  6.3

     negative rho (up, down):  2.111E-03 0.000E+00

     total cpu time spent up to now is        8.2 secs

     total energy              =     -48.23141919 Ry
     estimated scf accuracy    <       0.00000002 Ry

     iteration # 24     ecut=    60.00 Ry     beta= 0.70
     Davidson diagonalization with overlap
     ethr =  7.23E-11,  avg # of iterations =  3.1

     negative rho (up, down):  2.111E-03 0.000E+00

     total cpu time spent up to now is        8.4 secs

     total energy              =     -48.23141918 Ry
     estimated scf accuracy    <       0.00000001 Ry

     iteration # 25     ecut=    60.00 Ry     beta= 0.70
     Davidson diagonalization with overlap
     ethr =  5.05E-11,  avg # of iterations =  1.4

     negative rho (up, down):  2.111E-03 0.000E+00

     total cpu time spent up to now is        8.5 secs

     End of self-consistent calculation

          k = 0.0000 0.0000 0.0000 (  4149 PWs)   bands (ev):

   -33.6345 -27.7087 -27.7087 -21.6718 -13.9472 -13.9472 -11.4331  -6.2893
    -2.2638  -2.1545  -2.1545   3.0635   5.2667   6.1694   6.3864   7.9339

          k = 0.0000 0.1925 0.0000 (  4194 PWs)   bands (ev):

   -34.0293 -28.5788 -27.5224 -21.0937 -13.9205 -11.6941  -9.8305  -7.7725
    -3.3276  -2.7713  -1.7671   2.4943   6.0437   6.7059   7.0127   7.8814

          k = 0.0000 0.3849 0.0000 (  4180 PWs)   bands (ev):

   -34.7139 -29.9247 -27.3094 -19.4604 -12.3815 -11.3530  -7.0316  -6.5447
    -4.9719  -3.4311  -2.3917   2.2240   3.2382   8.5112   9.1462   9.1717

          k = 0.0000-0.5774 0.0000 (  4184 PWs)   bands (ev):

   -35.0191 -30.4781 -27.2594 -17.9379 -13.7744 -10.5633  -5.6141  -5.4982
    -3.7103  -3.6045  -2.5912  -0.9990   3.8946   6.3658  11.4106  11.4346

          k = 0.1667 0.2887 0.0000 (  4170 PWs)   bands (ev):

   -34.4746 -30.1497 -26.7353 -19.9759 -13.4413  -9.9309  -7.8887  -7.6011
    -6.3575  -1.9704  -1.8561   3.5744   3.6094   7.4011   8.2766   8.3423

          k = 0.1667 0.4811 0.0000 (  4170 PWs)   bands (ev):

   -34.7250 -31.6168 -25.9380 -18.1242 -12.7821 -11.9322  -8.3748  -5.6296
    -4.4948  -1.6961  -1.4785   0.2326   5.2201   7.5344  10.8063  10.9984

          k = 0.3333 0.5774 0.0000 (  4152 PWs)   bands (ev):

   -34.2835 -32.9767 -24.8422 -17.1467 -13.0641 -11.9856 -10.6251  -5.8624
    -4.3630  -2.3993  -0.6219   5.5523   6.8316   8.3831   8.4762   9.8448

     the Fermi energy is     3.4768 ev

!    total energy              =     -48.23141918 Ry
     estimated scf accuracy    <          2.4E-09 Ry
     smearing contrib. (-TS)   =      -0.00106589 Ry
     internal energy E=F+TS    =     -48.23035330 Ry

     The total energy is F=E-TS. E is the sum of the following terms:
     one-electron contribution =   -1339.11761110 Ry
     hartree contribution      =     676.63719150 Ry
     xc contribution           =     -32.41483832 Ry
     ewald contribution        =     646.66490463 Ry

     convergence has been achieved in  25 iterations

     negative rho (up, down):  2.111E-03 0.000E+00

     Forces acting on atoms (cartesian axes, Ry/au):

     atom    1 type  1   force =     0.00000000    0.00000000  -21.51958688
     atom    2 type  1   force =     0.00000000   -0.00000000   -2.78888116
     atom    3 type  1   force =    -0.00000000   -0.00000000   -0.00090053
     atom    4 type  1   force =    -0.00000000    0.00000000    0.00315952
     atom    5 type  1   force =     0.00000000   -0.00000000   21.51899711
     atom    6 type  1   force =     0.00000000    0.00000000    2.78721193

     Total force =    30.687233     Total SCF correction =     0.000103


     Computing stress (Cartesian axis) and pressure


     negative rho (up, down):  2.111E-03 0.000E+00
          total   stress  (Ry/bohr**3)                   (kbar)     P=     5816.22
   0.01644448   0.00000000   0.00000000         2419.07        0.00        0.00
   0.00000000   0.01644448  -0.00000000            0.00     2419.07       -0.00
   0.00000000  -0.00000000   0.08572470            0.00       -0.00    12610.54


     Writing all to output data dir /run/media/rfa/SATA/Skripsi/DFT/Graphene-copy/tmp/gr-ab-3L.save/ :
     XML data file, charge density, pseudopotentials, collected wavefunctions

     init_run     :      0.47s CPU      0.72s WALL (       1 calls)
     electrons    :     13.75s CPU      7.77s WALL (       1 calls)
     forces       :      0.06s CPU      0.03s WALL (       1 calls)
     stress       :      0.16s CPU      0.11s WALL (       1 calls)

     Called by init_run:
     wfcinit      :      0.11s CPU      0.07s WALL (       1 calls)
     potinit      :      0.01s CPU      0.01s WALL (       1 calls)
     hinit0       :      0.33s CPU      0.62s WALL (       1 calls)

     Called by electrons:
     c_bands      :     11.92s CPU      6.63s WALL (      25 calls)
     sum_band     :      1.36s CPU      0.76s WALL (      25 calls)
     v_of_rho     :      0.15s CPU      0.15s WALL (      26 calls)
     newd         :      0.16s CPU      0.14s WALL (      26 calls)
     mix_rho      :      0.14s CPU      0.08s WALL (      25 calls)

     Called by c_bands:
     init_us_2    :      0.21s CPU      0.11s WALL (     371 calls)
     cegterg      :     11.62s CPU      6.47s WALL (     179 calls)

     Called by *egterg:
     cdiaghg      :      0.89s CPU      0.48s WALL (    1453 calls)
     h_psi        :      8.36s CPU      4.73s WALL (    1460 calls)
     s_psi        :      0.37s CPU      0.20s WALL (    1460 calls)
     g_psi        :      0.07s CPU      0.04s WALL (    1274 calls)

     Called by h_psi:
     h_psi:calbec :      1.06s CPU      0.59s WALL (    1460 calls)
     vloc_psi     :      6.67s CPU      3.80s WALL (    1460 calls)
     add_vuspsi   :      0.54s CPU      0.29s WALL (    1460 calls)

     General routines
     calbec       :      1.22s CPU      0.68s WALL (    1754 calls)
     fft          :      0.38s CPU      0.66s WALL (     311 calls)
     ffts         :      0.01s CPU      0.01s WALL (      25 calls)
     fftw         :      6.30s CPU      3.61s WALL (   28130 calls)

     Parallel routines

     PWSCF        :     14.49s CPU      8.70s WALL


   This run was terminated on:  14:30:34  18Mar2025            

=------------------------------------------------------------------------------=
   JOB DONE.
=------------------------------------------------------------------------------=
