
     Program PWSCF v.7.4.1 starts on 18Mar2025 at 14:31:14 

     This program is part of the open-source Quantum ESPRESSO suite
     for quantum simulation of materials; please cite
         "P. Giannozzi et al., J. Phys.:Condens. Matter 21 395502 (2009);
         "P. Giannozzi et al., J. Phys.:Condens. Matter 29 465901 (2017);
         "P. Giannozzi et al., J. Chem. Phys. 152 154105 (2020);
          URL http://www.quantum-espresso.org", 
     in publications or presentations arising from this work. More details at
     http://www.quantum-espresso.org/quote

     Parallel version (MPI), running on     7 processors

     MPI processes distributed on     1 nodes
     4533 MiB available memory on the printing compute node when the environment starts

     Waiting for input...
     Reading input from standard input

     Current dimensions of program PWSCF are:
     Max number of different atomic species (ntypx) = 10
     Max number of k-points (npk) =  40000
     Max angular momentum in pseudopotentials (lmaxx) =  4

     R & G space division:  proc/nbgrp/npool/nimage =       7
     Subspace diagonalization in iterative solution of the eigenvalue problem:
     a serial algorithm will be used


     Parallelization info
     --------------------
     sticks:   dense  smooth     PW     G-vecs:    dense   smooth      PW
     Min          51      51     15                 4783     4783     805
     Max          52      52     16                 4800     4800     826
     Sum         361     361    109                33523    33523    5717

     Using Slab Decomposition



     bravais-lattice index     =            4
     lattice parameter (alat)  =       4.6561  a.u.
     unit-cell volume          =     532.1899 (a.u.)^3
     number of atoms/cell      =            6
     number of atomic types    =            1
     number of electrons       =        24.00
     number of Kohn-Sham states=           16
     kinetic-energy cutoff     =      60.0000  Ry
     charge density cutoff     =     240.0000  Ry
     scf convergence threshold =      1.0E-08
     mixing beta               =       0.7000
     number of iterations used =            8  plain     mixing
     Exchange-correlation= PBE
                           (   1   4   3   4   0   0   0)

     celldm(1)=   4.656107  celldm(2)=   0.000000  celldm(3)=   6.087896
     celldm(4)=   0.000000  celldm(5)=   0.000000  celldm(6)=   0.000000

     crystal axes: (cart. coord. in units of alat)
               a(1) = (   1.000000   0.000000   0.000000 )  
               a(2) = (  -0.500000   0.866025   0.000000 )  
               a(3) = (   0.000000   0.000000   6.087896 )  

     reciprocal axes: (cart. coord. in units 2 pi/alat)
               b(1) = (  1.000000  0.577350 -0.000000 )  
               b(2) = (  0.000000  1.154701  0.000000 )  
               b(3) = (  0.000000 -0.000000  0.164260 )  


     PseudoPot. # 1 for C  read from file:
     /run/media/rfa/SATA/Skripsi/DFT/Graphene-copy/pseudo/C.pbe-n-rrkjus_psl.0.1.UPF
     MD5 check sum: 96a6a315177d77e6c95bf6fd3870f9e3
     Pseudo is Ultrasoft + core correction, Zval =  4.0
     Generated using &quot;atomic&quot; code by A. Dal Corso  v.6.3MaX
     Using radial grid of 1073 points,  4 beta functions with: 
                l(1) =   0
                l(2) =   0
                l(3) =   1
                l(4) =   1
     Q(r) pseudized with 0 coefficients 


     atomic species   valence    mass     pseudopotential
     C                 4.00    12.01070     C ( 1.00)

      6 Sym. Ops. (no inversion) found



   Cartesian axes

     site n.     atom                  positions (alat units)
         1        C      tau(   1) = (   0.0000000   0.5773503   3.0439478  )
         2        C      tau(   2) = (   0.5000000   0.2886751   3.0439478  )
         3        C      tau(   3) = (   0.0000000   0.0000000   3.2468777  )
         4        C      tau(   4) = (   0.0000000   0.5773503   3.2468777  )
         5        C      tau(   5) = (   0.0000000   0.5773503   3.4498075  )
         6        C      tau(   6) = (   0.5000000   0.2886751   3.4498075  )

     number of k points=    30  Marzari-Vanderbilt smearing, width (Ry)=  0.0200
                       cart. coord. in units 2pi/alat
        k(    1) = (   0.0000000   0.0000000   0.0000000), wk =   0.0078125
        k(    2) = (   0.0000000   0.0721688   0.0000000), wk =   0.0468750
        k(    3) = (   0.0000000   0.1443376   0.0000000), wk =   0.0468750
        k(    4) = (   0.0000000   0.2165064   0.0000000), wk =   0.0468750
        k(    5) = (   0.0000000   0.2886751   0.0000000), wk =   0.0468750
        k(    6) = (   0.0000000   0.3608439   0.0000000), wk =   0.0468750
        k(    7) = (   0.0000000   0.4330127   0.0000000), wk =   0.0468750
        k(    8) = (   0.0000000   0.5051815   0.0000000), wk =   0.0468750
        k(    9) = (   0.0000000  -0.5773503   0.0000000), wk =   0.0234375
        k(   10) = (   0.0625000   0.1082532   0.0000000), wk =   0.0468750
        k(   11) = (   0.0625000   0.1804220   0.0000000), wk =   0.0937500
        k(   12) = (   0.0625000   0.2525907   0.0000000), wk =   0.0937500
        k(   13) = (   0.0625000   0.3247595   0.0000000), wk =   0.0937500
        k(   14) = (   0.0625000   0.3969283   0.0000000), wk =   0.0937500
        k(   15) = (   0.0625000   0.4690971   0.0000000), wk =   0.0937500
        k(   16) = (   0.0625000   0.5412659   0.0000000), wk =   0.0937500
        k(   17) = (   0.1250000   0.2165064   0.0000000), wk =   0.0468750
        k(   18) = (   0.1250000   0.2886751   0.0000000), wk =   0.0937500
        k(   19) = (   0.1250000   0.3608439   0.0000000), wk =   0.0937500
        k(   20) = (   0.1250000   0.4330127   0.0000000), wk =   0.0937500
        k(   21) = (   0.1250000   0.5051815   0.0000000), wk =   0.0937500
        k(   22) = (   0.1250000   0.5773503   0.0000000), wk =   0.0468750
        k(   23) = (   0.1875000   0.3247595   0.0000000), wk =   0.0468750
        k(   24) = (   0.1875000   0.3969283   0.0000000), wk =   0.0937500
        k(   25) = (   0.1875000   0.4690971   0.0000000), wk =   0.0937500
        k(   26) = (   0.1875000   0.5412659   0.0000000), wk =   0.0937500
        k(   27) = (   0.2500000   0.4330127   0.0000000), wk =   0.0468750
        k(   28) = (   0.2500000   0.5051815   0.0000000), wk =   0.0937500
        k(   29) = (   0.2500000   0.5773503   0.0000000), wk =   0.0468750
        k(   30) = (   0.3125000   0.5412659   0.0000000), wk =   0.0468750

     Dense  grid:    33523 G-vectors     FFT dimensions: (  24,  24, 144)

     Estimated max dynamical RAM per process >      12.47 MB

     Estimated total dynamical RAM >      87.29 MB

     Check: negative core charge=   -0.000004

     Initial potential from superposition of free atoms

     starting charge      23.9998, renormalised to      24.0000

     negative rho (up, down):  1.394E-04 0.000E+00
     Starting wfcs are   24 randomized atomic wfcs

     total cpu time spent up to now is        1.0 secs

     per-process dynamical memory:    15.0 Mb

     Self-consistent Calculation

     iteration #  1     ecut=    60.00 Ry     beta= 0.70
     Davidson diagonalization with overlap
     ethr =  1.00E-02,  avg # of iterations =  9.9

     negative rho (up, down):  2.851E-03 0.000E+00

     total cpu time spent up to now is        2.9 secs

     total energy              =     -40.29368743 Ry
     estimated scf accuracy    <      19.19794684 Ry

     iteration #  2     ecut=    60.00 Ry     beta= 0.70
     Davidson diagonalization with overlap
     ethr =  1.00E-02,  avg # of iterations = 11.4

     total cpu time spent up to now is        4.6 secs

     total energy              =     -40.11426160 Ry
     estimated scf accuracy    <      25.97300453 Ry

     iteration #  3     ecut=    60.00 Ry     beta= 0.70
     Davidson diagonalization with overlap
     ethr =  1.00E-02,  avg # of iterations =  9.0

     total cpu time spent up to now is        6.1 secs

     total energy              =     -48.16524720 Ry
     estimated scf accuracy    <       1.35486975 Ry

     iteration #  4     ecut=    60.00 Ry     beta= 0.70
     Davidson diagonalization with overlap
     ethr =  5.65E-03,  avg # of iterations =  3.6

     total cpu time spent up to now is        6.8 secs

     total energy              =     -48.13975489 Ry
     estimated scf accuracy    <       0.59901408 Ry

     iteration #  5     ecut=    60.00 Ry     beta= 0.70
     Davidson diagonalization with overlap
     ethr =  2.50E-03,  avg # of iterations =  3.5

     total cpu time spent up to now is        7.6 secs

     total energy              =     -48.16880668 Ry
     estimated scf accuracy    <       0.37332130 Ry

     iteration #  6     ecut=    60.00 Ry     beta= 0.70
     Davidson diagonalization with overlap
     ethr =  1.56E-03,  avg # of iterations =  2.7

     negative rho (up, down):  1.539E-07 0.000E+00

     total cpu time spent up to now is        8.3 secs

     total energy              =     -48.17305366 Ry
     estimated scf accuracy    <       0.13990242 Ry

     iteration #  7     ecut=    60.00 Ry     beta= 0.70
     Davidson diagonalization with overlap
     ethr =  5.83E-04,  avg # of iterations =  5.7

     negative rho (up, down):  6.440E-06 0.000E+00

     total cpu time spent up to now is        9.3 secs

     total energy              =     -48.20719061 Ry
     estimated scf accuracy    <       0.03827162 Ry

     iteration #  8     ecut=    60.00 Ry     beta= 0.70
     Davidson diagonalization with overlap
     c_bands:  1 eigenvalues not converged
     c_bands:  1 eigenvalues not converged
     c_bands:  1 eigenvalues not converged
     c_bands:  2 eigenvalues not converged
     c_bands:  1 eigenvalues not converged
     ethr =  1.59E-04,  avg # of iterations = 12.8

     negative rho (up, down):  4.698E-04 0.000E+00

     total cpu time spent up to now is       10.8 secs

     total energy              =     -48.22458940 Ry
     estimated scf accuracy    <       0.00541803 Ry

     iteration #  9     ecut=    60.00 Ry     beta= 0.70
     Davidson diagonalization with overlap
     c_bands:  1 eigenvalues not converged
     c_bands:  1 eigenvalues not converged
     c_bands:  2 eigenvalues not converged
     c_bands:  2 eigenvalues not converged
     c_bands:  2 eigenvalues not converged
     c_bands:  2 eigenvalues not converged
     c_bands:  2 eigenvalues not converged
     c_bands:  1 eigenvalues not converged
     c_bands:  1 eigenvalues not converged
     c_bands:  2 eigenvalues not converged
     c_bands:  1 eigenvalues not converged
     c_bands:  1 eigenvalues not converged
     c_bands:  1 eigenvalues not converged
     ethr =  2.26E-05,  avg # of iterations = 17.9

     negative rho (up, down):  1.392E-03 0.000E+00

     total cpu time spent up to now is       13.1 secs

     total energy              =     -48.23241589 Ry
     estimated scf accuracy    <       0.00079971 Ry

     iteration # 10     ecut=    60.00 Ry     beta= 0.70
     Davidson diagonalization with overlap
     c_bands:  1 eigenvalues not converged
     c_bands:  1 eigenvalues not converged
     c_bands:  1 eigenvalues not converged
     c_bands:  1 eigenvalues not converged
     c_bands:  2 eigenvalues not converged
     c_bands:  1 eigenvalues not converged
     c_bands:  2 eigenvalues not converged
     c_bands:  1 eigenvalues not converged
     c_bands:  1 eigenvalues not converged
     c_bands:  1 eigenvalues not converged
     ethr =  3.33E-06,  avg # of iterations = 15.1

     negative rho (up, down):  2.397E-03 0.000E+00

     total cpu time spent up to now is       15.0 secs

     total energy              =     -48.23306302 Ry
     estimated scf accuracy    <       0.00015956 Ry

     iteration # 11     ecut=    60.00 Ry     beta= 0.70
     Davidson diagonalization with overlap
     c_bands:  1 eigenvalues not converged
     ethr =  6.65E-07,  avg # of iterations = 10.3

     negative rho (up, down):  2.096E-03 0.000E+00

     total cpu time spent up to now is       16.5 secs

     total energy              =     -48.23321031 Ry
     estimated scf accuracy    <       0.00007057 Ry

     iteration # 12     ecut=    60.00 Ry     beta= 0.70
     Davidson diagonalization with overlap
     ethr =  2.94E-07,  avg # of iterations =  4.4

     negative rho (up, down):  2.096E-03 0.000E+00

     total cpu time spent up to now is       17.3 secs

     total energy              =     -48.23323141 Ry
     estimated scf accuracy    <       0.00000428 Ry

     iteration # 13     ecut=    60.00 Ry     beta= 0.70
     Davidson diagonalization with overlap
     ethr =  1.78E-08,  avg # of iterations = 13.0

     negative rho (up, down):  2.099E-03 0.000E+00

     total cpu time spent up to now is       19.8 secs

     total energy              =     -48.23324937 Ry
     estimated scf accuracy    <       0.00000159 Ry

     iteration # 14     ecut=    60.00 Ry     beta= 0.70
     Davidson diagonalization with overlap
     ethr =  6.61E-09,  avg # of iterations =  3.9

     negative rho (up, down):  2.111E-03 0.000E+00

     total cpu time spent up to now is       20.5 secs

     total energy              =     -48.23324934 Ry
     estimated scf accuracy    <       0.00000065 Ry

     iteration # 15     ecut=    60.00 Ry     beta= 0.70
     Davidson diagonalization with overlap
     ethr =  2.72E-09,  avg # of iterations =  4.6

     negative rho (up, down):  2.113E-03 0.000E+00

     total cpu time spent up to now is       21.4 secs

     total energy              =     -48.23324961 Ry
     estimated scf accuracy    <       0.00000001 Ry

     iteration # 16     ecut=    60.00 Ry     beta= 0.70
     Davidson diagonalization with overlap
     c_bands:  1 eigenvalues not converged
     c_bands:  1 eigenvalues not converged
     c_bands:  4 eigenvalues not converged
     c_bands:  1 eigenvalues not converged
     ethr =  4.39E-11,  avg # of iterations = 23.3

     negative rho (up, down):  2.114E-03 0.000E+00

     total cpu time spent up to now is       26.2 secs

     total energy              =     -48.23324978 Ry
     estimated scf accuracy    <       0.00000006 Ry

     iteration # 17     ecut=    60.00 Ry     beta= 0.70
     Davidson diagonalization with overlap
     ethr =  4.39E-11,  avg # of iterations =  2.4

     negative rho (up, down):  2.113E-03 0.000E+00

     total cpu time spent up to now is       26.9 secs

     total energy              =     -48.23324977 Ry
     estimated scf accuracy    <       0.00000002 Ry

     iteration # 18     ecut=    60.00 Ry     beta= 0.70
     Davidson diagonalization with overlap
     ethr =  4.39E-11,  avg # of iterations =  7.3

     negative rho (up, down):  2.113E-03 0.000E+00

     total cpu time spent up to now is       28.2 secs

     End of self-consistent calculation

          k = 0.0000 0.0000 0.0000 (  4149 PWs)   bands (ev):

   -33.5372 -27.6398 -27.6398 -21.6266 -13.8476 -13.8476 -11.3921  -6.2590
    -2.1864  -2.1034  -2.1034   3.0959   5.2563   6.1662   6.3814   7.9710

          k = 0.0000 0.0722 0.0000 (  4170 PWs)   bands (ev):

   -33.6009 -27.7843 -27.6058 -21.5459 -13.8985 -13.5059 -11.1084  -6.4653
    -2.3084  -2.2103  -2.0932   2.9013   5.3711   6.1555   6.4814   7.9551

          k = 0.0000 0.1443 0.0000 (  4192 PWs)   bands (ev):

   -33.7763 -28.1699 -27.5182 -21.3021 -13.9198 -12.5345 -10.3979  -7.0889
    -2.8340  -2.4980  -1.8588   2.6072   5.7077   6.3715   6.7638   7.9496

          k = 0.0000 0.2165 0.0000 (  4184 PWs)   bands (ev):

   -34.0233 -28.6869 -27.4096 -20.8966 -13.7391 -11.0582  -9.4630  -8.1116
    -3.5038  -2.8465  -1.6279   2.5594   6.2189   6.9138   7.1390   7.5256

          k = 0.0000 0.2887 0.0000 (  4186 PWs)   bands (ev):

   -34.2957 -29.2275 -27.3112 -20.3453 -13.2862  -9.4212  -9.2184  -8.4245
    -4.1732  -3.1413  -1.6394   2.7766   5.0635   7.0822   7.7319   7.8370

          k = 0.0000 0.3608 0.0000 (  4188 PWs)   bands (ev):

   -34.5507 -29.7112 -27.2394 -19.6639 -12.5738 -10.8356  -7.3547  -7.1592
    -4.7534  -3.3437  -2.0823   2.9234   3.1408   8.1278   8.7748   8.7778

          k = 0.0000 0.4330 0.0000 (  4186 PWs)   bands (ev):

   -34.7554 -30.0864 -27.1956 -18.9105 -12.1867 -11.6909  -6.3390  -5.1936
    -5.0659  -3.4725  -2.8753   1.0739   3.5235   8.8456   9.5207   9.9639

          k = 0.0000 0.5052 0.0000 (  4184 PWs)   bands (ev):

   -34.8871 -30.3222 -27.1738 -18.2169 -13.2652 -10.8502  -5.6199  -5.4666
    -3.5482  -3.5429  -3.2825  -0.3409   3.8107   7.1976  10.8849  11.0364

          k = 0.0000-0.5774 0.0000 (  4184 PWs)   bands (ev):

   -34.9327 -30.4025 -27.1675 -17.8979 -13.7175 -10.4673  -5.5590  -5.4759
    -3.6472  -3.5659  -2.5042  -0.9592   3.9174   6.4581  11.4462  11.4820

          k = 0.0625 0.1083 0.0000 (  4175 PWs)   bands (ev):

   -33.7199 -28.0683 -27.5245 -21.3821 -13.9442 -12.8339 -10.6188  -6.8721
    -2.7843  -2.3046  -1.9289   2.6864   5.5969   6.2804   6.6729   7.9445

          k = 0.0625 0.1804 0.0000 (  4175 PWs)   bands (ev):

   -33.9272 -28.5621 -27.3769 -21.0570 -13.8848 -11.5765  -9.8191  -7.6716
    -3.6020  -2.4266  -1.6935   2.6094   6.0292   6.6840   7.0198   7.9285

          k = 0.0625 0.2526 0.0000 (  4178 PWs)   bands (ev):

   -34.1781 -29.1384 -27.2133 -20.5776 -13.5950  -9.8844  -8.8577  -8.8033
    -4.4676  -2.5649  -1.5820   2.7869   5.9252   6.7650   7.3737   7.5382

          k = 0.0625 0.3248 0.0000 (  4173 PWs)   bands (ev):

   -34.4287 -29.6947 -27.0702 -19.9607 -13.0400 -10.1408  -7.9688  -7.7601
    -5.2067  -2.6899  -1.8216   3.1389   3.7759   7.5740   8.3070   8.3127

          k = 0.0625 0.3969 0.0000 (  4185 PWs)   bands (ev):

   -34.6444 -30.1610 -26.9647 -19.2364 -12.2608 -11.5138  -6.8196  -5.7811
    -5.7671  -2.7847  -2.4641   1.8222   3.5490   8.5812   9.3562   9.4432

          k = 0.0625 0.4691 0.0000 (  4185 PWs)   bands (ev):

   -34.8004 -30.4928 -26.8990 -18.4928 -12.7422 -11.3936  -6.1415  -5.9189
    -4.0490  -3.0229  -2.8492   0.2528   3.9050   7.8874  10.4623  10.6094

          k = 0.0625 0.5413 0.0000 (  4197 PWs)   bands (ev):

   -34.8824 -30.6646 -26.8682 -17.9383 -13.5513 -10.7433  -6.3292  -5.5208
    -3.8869  -2.8805  -2.2508  -0.6644   4.1115   6.6431  11.3414  11.4015

          k = 0.1250 0.2165 0.0000 (  4163 PWs)   bands (ev):

   -34.1306 -29.1642 -27.1127 -20.6557 -13.7504 -10.0553  -9.0241  -8.5346
    -4.7347  -2.2518  -1.5735   2.8838   6.2230   6.6659   7.2487   7.4275

          k = 0.1250 0.2887 0.0000 (  4166 PWs)   bands (ev):

   -34.3416 -29.8194 -26.8196 -20.1100 -13.4119  -9.6239  -8.1979  -8.0703
    -5.8144  -2.1117  -1.6975   3.3565   4.2339   7.2647   8.0616   8.0674

          k = 0.1250 0.3608 0.0000 (  4180 PWs)   bands (ev):

   -34.5263 -30.4204 -26.5592 -19.4420 -12.8434 -10.8612  -7.1623  -6.6580
    -6.0699  -2.1712  -2.0156   2.3089   3.8927   8.0608   9.0015   9.1123

          k = 0.1250 0.4330 0.0000 (  4177 PWs)   bands (ev):

   -34.6644 -30.8961 -26.3636 -18.7019 -12.1062 -12.0951  -7.2340  -6.2304
    -4.3611  -2.5810  -1.9542   0.7375   4.3718   8.2678  10.2002  10.2630

          k = 0.1250 0.5052 0.0000 (  4183 PWs)   bands (ev):

   -34.7479 -31.2002 -26.2451 -18.0270 -13.1050 -11.3911  -7.5663  -5.5870
    -4.2426  -1.9216  -1.8555  -0.0541   4.6990   7.1691  11.0823  11.1912

          k = 0.1250 0.5774 0.0000 (  4190 PWs)   bands (ev):

   -34.7756 -31.3047 -26.2056 -17.7175 -13.5311 -11.0661  -7.6747  -5.5219
    -4.2115  -1.9112  -1.8126   0.2055   4.8146   6.4343  11.3382  11.5775

          k = 0.1875 0.3248 0.0000 (  4170 PWs)   bands (ev):

   -34.4745 -30.5418 -26.3769 -19.5121 -13.0897 -10.5481  -7.2728  -7.0685
    -6.1485  -2.0656  -1.7392   2.4726   4.1372   7.8834   8.8796   8.9949

          k = 0.1875 0.3969 0.0000 (  4168 PWs)   bands (ev):

   -34.5561 -31.1867 -25.9817 -18.8153 -12.5994 -11.5586  -8.0279  -6.3973
    -4.4795  -2.3079  -1.4669   0.9867   4.9361   8.2839   9.9695  10.1028

          k = 0.1875 0.4691 0.0000 (  4167 PWs)   bands (ev):

   -34.5879 -31.6743 -25.6927 -18.1078 -12.5441 -12.0186  -8.6355  -5.6125
    -4.4934  -1.5514  -1.2912   0.4287   5.5559   7.8323  10.6425  10.9511

          k = 0.1875 0.5413 0.0000 (  4180 PWs)   bands (ev):

   -34.5920 -31.9397 -25.5417 -17.5930 -13.2241 -11.5757  -8.9227  -5.4591
    -4.5532  -1.7981  -1.2047   1.5697   5.8770   6.7379  11.0063  11.3253

          k = 0.2500 0.4330 0.0000 (  4156 PWs)   bands (ev):

   -34.5110 -31.8652 -25.4744 -18.1396 -12.2748 -12.2409  -9.1102  -5.6137
    -4.5847  -1.4358  -1.0823   0.5967   6.0668   8.1549  10.2190  10.8440

          k = 0.2500 0.5052 0.0000 (  4159 PWs)   bands (ev):

   -34.4222 -32.3562 -25.1312 -17.5461 -12.8428 -11.9452  -9.7749  -5.3147
    -4.8549  -1.7757  -0.8562   2.3570   6.9532   7.5061  10.3542  10.8715

          k = 0.2500 0.5774 0.0000 (  4160 PWs)   bands (ev):

   -34.3718 -32.5439 -25.0102 -17.2862 -13.1108 -11.7950  -9.9929  -5.6131
    -4.5204  -2.1189  -0.7811   3.7408   6.6805   7.2752  10.5288  10.5526

          k = 0.3125 0.5413 0.0000 (  4162 PWs)   bands (ev):

   -34.2419 -32.8063 -24.8113 -17.1788 -12.9875 -11.8921 -10.4451  -5.7113
    -4.4554  -2.2500  -0.6447   4.7840   7.1460   8.1890   9.0878  10.0299

     the Fermi energy is     3.5012 ev

!    total energy              =     -48.23324978 Ry
     estimated scf accuracy    <          4.9E-09 Ry
     smearing contrib. (-TS)   =      -0.00001603 Ry
     internal energy E=F+TS    =     -48.23323375 Ry

     The total energy is F=E-TS. E is the sum of the following terms:
     one-electron contribution =   -1339.23218100 Ry
     hartree contribution      =     676.74720707 Ry
     xc contribution           =     -32.41316445 Ry
     ewald contribution        =     646.66490463 Ry

     convergence has been achieved in  18 iterations

     negative rho (up, down):  2.113E-03 0.000E+00

     Forces acting on atoms (cartesian axes, Ry/au):

     atom    1 type  1   force =     0.00000000    0.00000000  -21.49832229
     atom    2 type  1   force =     0.00000000   -0.00000000   -2.78291471
     atom    3 type  1   force =     0.00000000    0.00000000   -0.00090196
     atom    4 type  1   force =     0.00000000   -0.00000000    0.00311205
     atom    5 type  1   force =     0.00000000    0.00000000   21.49777302
     atom    6 type  1   force =     0.00000000    0.00000000    2.78125388

     Total force =    30.656355     Total SCF correction =     0.000138


     Computing stress (Cartesian axis) and pressure


     negative rho (up, down):  2.113E-03 0.000E+00
          total   stress  (Ry/bohr**3)                   (kbar)     P=     5814.10
   0.01646741   0.00000000   0.00000000         2422.44        0.00        0.00
   0.00000000   0.01646741  -0.00000000            0.00     2422.44       -0.00
   0.00000000  -0.00000000   0.08563558            0.00       -0.00    12597.43


     Writing all to output data dir /run/media/rfa/SATA/Skripsi/DFT/Graphene-copy/tmp/gr-ab-3L.save/ :
     XML data file, charge density, pseudopotentials, collected wavefunctions

     init_run     :      0.84s CPU      0.95s WALL (       1 calls)
     electrons    :     48.69s CPU     27.22s WALL (       1 calls)
     forces       :      0.15s CPU      0.08s WALL (       1 calls)
     stress       :      0.50s CPU      0.28s WALL (       1 calls)

     Called by init_run:
     wfcinit      :      0.47s CPU      0.30s WALL (       1 calls)
     potinit      :      0.01s CPU      0.01s WALL (       1 calls)
     hinit0       :      0.34s CPU      0.62s WALL (       1 calls)

     Called by electrons:
     c_bands      :     44.95s CPU     25.03s WALL (      18 calls)
     sum_band     :      3.39s CPU      1.91s WALL (      18 calls)
     v_of_rho     :      0.14s CPU      0.12s WALL (      19 calls)
     newd         :      0.11s CPU      0.11s WALL (      19 calls)
     mix_rho      :      0.09s CPU      0.05s WALL (      18 calls)

     Called by c_bands:
     init_us_2    :      0.64s CPU      0.35s WALL (    1170 calls)
     cegterg      :     44.02s CPU     24.54s WALL (     560 calls)

     Called by *egterg:
     cdiaghg      :      3.67s CPU      1.93s WALL (    5390 calls)
     h_psi        :     31.86s CPU     18.05s WALL (    5420 calls)
     s_psi        :      1.22s CPU      0.67s WALL (    5420 calls)
     g_psi        :      0.33s CPU      0.17s WALL (    4830 calls)

     Called by h_psi:
     h_psi:calbec :      3.84s CPU      2.18s WALL (    5420 calls)
     vloc_psi     :     25.84s CPU     14.64s WALL (    5420 calls)
     add_vuspsi   :      1.80s CPU      1.00s WALL (    5420 calls)

     General routines
     calbec       :      4.40s CPU      2.49s WALL (    6470 calls)
     fft          :      0.37s CPU      0.65s WALL (     234 calls)
     ffts         :      0.01s CPU      0.00s WALL (      18 calls)
     fftw         :     24.13s CPU     13.70s WALL (  101634 calls)

     Parallel routines

     PWSCF        :     50.25s CPU     28.66s WALL


   This run was terminated on:  14:31:43  18Mar2025            

=------------------------------------------------------------------------------=
   JOB DONE.
=------------------------------------------------------------------------------=
