
     Program PWSCF v.7.4.1 starts on 18Mar2025 at 14:30:49 

     This program is part of the open-source Quantum ESPRESSO suite
     for quantum simulation of materials; please cite
         "P. Giannozzi et al., J. Phys.:Condens. Matter 21 395502 (2009);
         "P. Giannozzi et al., J. Phys.:Condens. Matter 29 465901 (2017);
         "P. Giannozzi et al., J. Chem. Phys. 152 154105 (2020);
          URL http://www.quantum-espresso.org", 
     in publications or presentations arising from this work. More details at
     http://www.quantum-espresso.org/quote

     Parallel version (MPI), running on     7 processors

     MPI processes distributed on     1 nodes
     4529 MiB available memory on the printing compute node when the environment starts

     Waiting for input...
     Reading input from standard input

     Current dimensions of program PWSCF are:
     Max number of different atomic species (ntypx) = 10
     Max number of k-points (npk) =  40000
     Max angular momentum in pseudopotentials (lmaxx) =  4

     R & G space division:  proc/nbgrp/npool/nimage =       7
     Subspace diagonalization in iterative solution of the eigenvalue problem:
     a serial algorithm will be used


     Parallelization info
     --------------------
     sticks:   dense  smooth     PW     G-vecs:    dense   smooth      PW
     Min          51      51     15                 4783     4783     815
     Max          52      52     16                 4800     4800     838
     Sum         361     361    109                33523    33523    5791

     Using Slab Decomposition



     bravais-lattice index     =            4
     lattice parameter (alat)  =       4.6561  a.u.
     unit-cell volume          =     532.1899 (a.u.)^3
     number of atoms/cell      =            6
     number of atomic types    =            1
     number of electrons       =        24.00
     number of Kohn-Sham states=           16
     kinetic-energy cutoff     =      60.0000  Ry
     charge density cutoff     =     240.0000  Ry
     scf convergence threshold =      1.0E-08
     mixing beta               =       0.7000
     number of iterations used =            8  plain     mixing
     Exchange-correlation= PBE
                           (   1   4   3   4   0   0   0)

     celldm(1)=   4.656107  celldm(2)=   0.000000  celldm(3)=   6.087896
     celldm(4)=   0.000000  celldm(5)=   0.000000  celldm(6)=   0.000000

     crystal axes: (cart. coord. in units of alat)
               a(1) = (   1.000000   0.000000   0.000000 )  
               a(2) = (  -0.500000   0.866025   0.000000 )  
               a(3) = (   0.000000   0.000000   6.087896 )  

     reciprocal axes: (cart. coord. in units 2 pi/alat)
               b(1) = (  1.000000  0.577350 -0.000000 )  
               b(2) = (  0.000000  1.154701  0.000000 )  
               b(3) = (  0.000000 -0.000000  0.164260 )  


     PseudoPot. # 1 for C  read from file:
     /run/media/rfa/SATA/Skripsi/DFT/Graphene-copy/pseudo/C.pbe-n-rrkjus_psl.0.1.UPF
     MD5 check sum: 96a6a315177d77e6c95bf6fd3870f9e3
     Pseudo is Ultrasoft + core correction, Zval =  4.0
     Generated using &quot;atomic&quot; code by A. Dal Corso  v.6.3MaX
     Using radial grid of 1073 points,  4 beta functions with: 
                l(1) =   0
                l(2) =   0
                l(3) =   1
                l(4) =   1
     Q(r) pseudized with 0 coefficients 


     atomic species   valence    mass     pseudopotential
     C                 4.00    12.01070     C ( 1.00)

      6 Sym. Ops. (no inversion) found



   Cartesian axes

     site n.     atom                  positions (alat units)
         1        C      tau(   1) = (   0.0000000   0.5773503   3.0439478  )
         2        C      tau(   2) = (   0.5000000   0.2886751   3.0439478  )
         3        C      tau(   3) = (   0.0000000   0.0000000   3.2468777  )
         4        C      tau(   4) = (   0.0000000   0.5773503   3.2468777  )
         5        C      tau(   5) = (   0.0000000   0.5773503   3.4498075  )
         6        C      tau(   6) = (   0.5000000   0.2886751   3.4498075  )

     number of k points=    19  Marzari-Vanderbilt smearing, width (Ry)=  0.0200
                       cart. coord. in units 2pi/alat
        k(    1) = (   0.0000000   0.0000000   0.0000000), wk =   0.0138889
        k(    2) = (   0.0000000   0.0962250   0.0000000), wk =   0.0833333
        k(    3) = (   0.0000000   0.1924501   0.0000000), wk =   0.0833333
        k(    4) = (   0.0000000   0.2886751   0.0000000), wk =   0.0833333
        k(    5) = (   0.0000000   0.3849002   0.0000000), wk =   0.0833333
        k(    6) = (   0.0000000   0.4811252   0.0000000), wk =   0.0833333
        k(    7) = (   0.0000000  -0.5773503   0.0000000), wk =   0.0416667
        k(    8) = (   0.0833333   0.1443376   0.0000000), wk =   0.0833333
        k(    9) = (   0.0833333   0.2405626   0.0000000), wk =   0.1666667
        k(   10) = (   0.0833333   0.3367877   0.0000000), wk =   0.1666667
        k(   11) = (   0.0833333   0.4330127   0.0000000), wk =   0.1666667
        k(   12) = (   0.0833333   0.5292377   0.0000000), wk =   0.1666667
        k(   13) = (   0.1666667   0.2886751   0.0000000), wk =   0.0833333
        k(   14) = (   0.1666667   0.3849002   0.0000000), wk =   0.1666667
        k(   15) = (   0.1666667   0.4811252   0.0000000), wk =   0.1666667
        k(   16) = (   0.1666667   0.5773503   0.0000000), wk =   0.0833333
        k(   17) = (   0.2500000   0.4330127   0.0000000), wk =   0.0833333
        k(   18) = (   0.2500000   0.5292377   0.0000000), wk =   0.1666667
        k(   19) = (   0.3333333   0.5773503   0.0000000), wk =   0.0277778

     Dense  grid:    33523 G-vectors     FFT dimensions: (  24,  24, 144)

     Estimated max dynamical RAM per process >      10.87 MB

     Estimated total dynamical RAM >      76.08 MB

     Check: negative core charge=   -0.000004

     Initial potential from superposition of free atoms

     starting charge      23.9998, renormalised to      24.0000

     negative rho (up, down):  1.394E-04 0.000E+00
     Starting wfcs are   24 randomized atomic wfcs

     total cpu time spent up to now is        0.9 secs

     per-process dynamical memory:    13.1 Mb

     Self-consistent Calculation

     iteration #  1     ecut=    60.00 Ry     beta= 0.70
     Davidson diagonalization with overlap
     ethr =  1.00E-02,  avg # of iterations =  9.9

     negative rho (up, down):  2.815E-03 0.000E+00

     total cpu time spent up to now is        2.1 secs

     total energy              =     -40.37159493 Ry
     estimated scf accuracy    <      19.08990909 Ry

     iteration #  2     ecut=    60.00 Ry     beta= 0.70
     Davidson diagonalization with overlap
     ethr =  1.00E-02,  avg # of iterations = 12.5

     total cpu time spent up to now is        3.3 secs

     total energy              =     -39.93558028 Ry
     estimated scf accuracy    <      26.34503004 Ry

     iteration #  3     ecut=    60.00 Ry     beta= 0.70
     Davidson diagonalization with overlap
     ethr =  1.00E-02,  avg # of iterations =  9.3

     negative rho (up, down):  2.299E-08 0.000E+00

     total cpu time spent up to now is        4.3 secs

     total energy              =     -48.17393605 Ry
     estimated scf accuracy    <       1.38758142 Ry

     iteration #  4     ecut=    60.00 Ry     beta= 0.70
     Davidson diagonalization with overlap
     ethr =  5.78E-03,  avg # of iterations =  3.6

     negative rho (up, down):  3.870E-07 0.000E+00

     total cpu time spent up to now is        4.8 secs

     total energy              =     -48.14915442 Ry
     estimated scf accuracy    <       0.62519596 Ry

     iteration #  5     ecut=    60.00 Ry     beta= 0.70
     Davidson diagonalization with overlap
     ethr =  2.60E-03,  avg # of iterations =  3.2

     negative rho (up, down):  1.050E-06 0.000E+00

     total cpu time spent up to now is        5.3 secs

     total energy              =     -48.16387139 Ry
     estimated scf accuracy    <       0.44358913 Ry

     iteration #  6     ecut=    60.00 Ry     beta= 0.70
     Davidson diagonalization with overlap
     ethr =  1.85E-03,  avg # of iterations =  2.4

     negative rho (up, down):  1.725E-05 0.000E+00

     total cpu time spent up to now is        5.7 secs

     total energy              =     -48.15677973 Ry
     estimated scf accuracy    <       0.15320232 Ry

     iteration #  7     ecut=    60.00 Ry     beta= 0.70
     Davidson diagonalization with overlap
     ethr =  6.38E-04,  avg # of iterations =  6.7

     negative rho (up, down):  4.703E-05 0.000E+00

     total cpu time spent up to now is        6.4 secs

     total energy              =     -48.21083602 Ry
     estimated scf accuracy    <       0.04061358 Ry

     iteration #  8     ecut=    60.00 Ry     beta= 0.70
     Davidson diagonalization with overlap
     c_bands:  1 eigenvalues not converged
     ethr =  1.69E-04,  avg # of iterations =  9.3

     negative rho (up, down):  2.929E-04 0.000E+00

     total cpu time spent up to now is        7.3 secs

     total energy              =     -48.22587172 Ry
     estimated scf accuracy    <       0.02198707 Ry

     iteration #  9     ecut=    60.00 Ry     beta= 0.70
     Davidson diagonalization with overlap
     c_bands:  1 eigenvalues not converged
     ethr =  9.16E-05,  avg # of iterations =  8.2

     negative rho (up, down):  1.012E-03 0.000E+00

     total cpu time spent up to now is        7.9 secs

     total energy              =     -48.22283968 Ry
     estimated scf accuracy    <       0.01370712 Ry

     iteration # 10     ecut=    60.00 Ry     beta= 0.70
     Davidson diagonalization with overlap
     c_bands:  2 eigenvalues not converged
     ethr =  5.71E-05,  avg # of iterations = 11.4

     negative rho (up, down):  1.545E-03 0.000E+00

     total cpu time spent up to now is        8.8 secs

     total energy              =     -48.22667174 Ry
     estimated scf accuracy    <       0.00194153 Ry

     iteration # 11     ecut=    60.00 Ry     beta= 0.70
     Davidson diagonalization with overlap
     c_bands:  1 eigenvalues not converged
     c_bands:  1 eigenvalues not converged
     c_bands:  1 eigenvalues not converged
     c_bands:  1 eigenvalues not converged
     c_bands:  2 eigenvalues not converged
     c_bands:  1 eigenvalues not converged
     c_bands:  1 eigenvalues not converged
     c_bands:  1 eigenvalues not converged
     ethr =  8.09E-06,  avg # of iterations = 17.1

     negative rho (up, down):  2.063E-03 0.000E+00

     total cpu time spent up to now is       10.1 secs

     total energy              =     -48.22892323 Ry
     estimated scf accuracy    <       0.00115342 Ry

     iteration # 12     ecut=    60.00 Ry     beta= 0.70
     Davidson diagonalization with overlap
     c_bands:  1 eigenvalues not converged
     ethr =  4.81E-06,  avg # of iterations =  5.2

     negative rho (up, down):  2.557E-03 0.000E+00

     total cpu time spent up to now is       10.7 secs

     total energy              =     -48.22866538 Ry
     estimated scf accuracy    <       0.00137903 Ry

     iteration # 13     ecut=    60.00 Ry     beta= 0.70
     Davidson diagonalization with overlap
     ethr =  4.81E-06,  avg # of iterations =  5.6

     negative rho (up, down):  2.236E-03 0.000E+00

     total cpu time spent up to now is       11.2 secs

     total energy              =     -48.22863194 Ry
     estimated scf accuracy    <       0.00092670 Ry

     iteration # 14     ecut=    60.00 Ry     beta= 0.70
     Davidson diagonalization with overlap
     ethr =  3.86E-06,  avg # of iterations =  1.9

     negative rho (up, down):  2.195E-03 0.000E+00

     total cpu time spent up to now is       11.6 secs

     total energy              =     -48.22868005 Ry
     estimated scf accuracy    <       0.00026000 Ry

     iteration # 15     ecut=    60.00 Ry     beta= 0.70
     Davidson diagonalization with overlap
     ethr =  1.08E-06,  avg # of iterations =  6.6

     negative rho (up, down):  2.197E-03 0.000E+00

     total cpu time spent up to now is       12.3 secs

     total energy              =     -48.22880083 Ry
     estimated scf accuracy    <       0.00016659 Ry

     iteration # 16     ecut=    60.00 Ry     beta= 0.70
     Davidson diagonalization with overlap
     ethr =  6.94E-07,  avg # of iterations =  3.1

     negative rho (up, down):  2.092E-03 0.000E+00

     total cpu time spent up to now is       12.8 secs

     total energy              =     -48.22877342 Ry
     estimated scf accuracy    <       0.00017526 Ry

     iteration # 17     ecut=    60.00 Ry     beta= 0.70
     Davidson diagonalization with overlap
     ethr =  6.94E-07,  avg # of iterations =  7.1

     negative rho (up, down):  2.064E-03 0.000E+00

     total cpu time spent up to now is       13.4 secs

     total energy              =     -48.22878835 Ry
     estimated scf accuracy    <       0.00014086 Ry

     iteration # 18     ecut=    60.00 Ry     beta= 0.70
     Davidson diagonalization with overlap
     ethr =  5.87E-07,  avg # of iterations =  1.8

     negative rho (up, down):  2.068E-03 0.000E+00

     total cpu time spent up to now is       13.8 secs

     total energy              =     -48.22879155 Ry
     estimated scf accuracy    <       0.00004313 Ry

     iteration # 19     ecut=    60.00 Ry     beta= 0.70
     Davidson diagonalization with overlap
     ethr =  1.80E-07,  avg # of iterations =  3.5

     negative rho (up, down):  2.078E-03 0.000E+00

     total cpu time spent up to now is       14.4 secs

     total energy              =     -48.22879226 Ry
     estimated scf accuracy    <       0.00002451 Ry

     iteration # 20     ecut=    60.00 Ry     beta= 0.70
     Davidson diagonalization with overlap
     ethr =  1.02E-07,  avg # of iterations =  3.6

     negative rho (up, down):  2.090E-03 0.000E+00

     total cpu time spent up to now is       14.9 secs

     total energy              =     -48.22879461 Ry
     estimated scf accuracy    <       0.00000484 Ry

     iteration # 21     ecut=    60.00 Ry     beta= 0.70
     Davidson diagonalization with overlap
     ethr =  2.02E-08,  avg # of iterations =  9.5

     negative rho (up, down):  2.093E-03 0.000E+00

     total cpu time spent up to now is       15.9 secs

     total energy              =     -48.22880656 Ry
     estimated scf accuracy    <       0.00000940 Ry

     iteration # 22     ecut=    60.00 Ry     beta= 0.70
     Davidson diagonalization with overlap
     ethr =  2.02E-08,  avg # of iterations =  2.9

     negative rho (up, down):  2.093E-03 0.000E+00

     total cpu time spent up to now is       16.4 secs

     total energy              =     -48.22880674 Ry
     estimated scf accuracy    <       0.00001429 Ry

     iteration # 23     ecut=    60.00 Ry     beta= 0.70
     Davidson diagonalization with overlap
     ethr =  2.02E-08,  avg # of iterations =  1.0

     negative rho (up, down):  2.087E-03 0.000E+00

     total cpu time spent up to now is       16.7 secs

     total energy              =     -48.22879837 Ry
     estimated scf accuracy    <       0.00001361 Ry

     iteration # 24     ecut=    60.00 Ry     beta= 0.70
     Davidson diagonalization with overlap
     ethr =  2.02E-08,  avg # of iterations =  6.1

     negative rho (up, down):  2.102E-03 0.000E+00

     total cpu time spent up to now is       17.5 secs

     total energy              =     -48.22880172 Ry
     estimated scf accuracy    <       0.00000724 Ry

     iteration # 25     ecut=    60.00 Ry     beta= 0.70
     Davidson diagonalization with overlap
     ethr =  2.02E-08,  avg # of iterations =  4.9

     negative rho (up, down):  2.090E-03 0.000E+00

     total cpu time spent up to now is       18.0 secs

     total energy              =     -48.22880284 Ry
     estimated scf accuracy    <       0.00000648 Ry

     iteration # 26     ecut=    60.00 Ry     beta= 0.70
     Davidson diagonalization with overlap
     ethr =  2.02E-08,  avg # of iterations =  1.2

     negative rho (up, down):  2.093E-03 0.000E+00

     total cpu time spent up to now is       18.4 secs

     total energy              =     -48.22880157 Ry
     estimated scf accuracy    <       0.00000401 Ry

     iteration # 27     ecut=    60.00 Ry     beta= 0.70
     Davidson diagonalization with overlap
     ethr =  1.67E-08,  avg # of iterations =  1.6

     negative rho (up, down):  2.091E-03 0.000E+00

     total cpu time spent up to now is       18.8 secs

     total energy              =     -48.22880145 Ry
     estimated scf accuracy    <       0.00000094 Ry

     iteration # 28     ecut=    60.00 Ry     beta= 0.70
     Davidson diagonalization with overlap
     ethr =  3.90E-09,  avg # of iterations =  5.0

     negative rho (up, down):  2.093E-03 0.000E+00

     total cpu time spent up to now is       19.4 secs

     total energy              =     -48.22880195 Ry
     estimated scf accuracy    <       0.00000005 Ry

     iteration # 29     ecut=    60.00 Ry     beta= 0.70
     Davidson diagonalization with overlap
     ethr =  2.18E-10,  avg # of iterations =  8.7

     negative rho (up, down):  2.092E-03 0.000E+00

     total cpu time spent up to now is       20.5 secs

     total energy              =     -48.22880206 Ry
     estimated scf accuracy    <       0.00000001 Ry

     iteration # 30     ecut=    60.00 Ry     beta= 0.70
     Davidson diagonalization with overlap
     ethr =  4.68E-11,  avg # of iterations =  8.8

     negative rho (up, down):  2.092E-03 0.000E+00

     total cpu time spent up to now is       21.5 secs

     total energy              =     -48.22880206 Ry
     estimated scf accuracy    <       0.00000005 Ry

     iteration # 31     ecut=    60.00 Ry     beta= 0.70
     Davidson diagonalization with overlap
     ethr =  4.68E-11,  avg # of iterations =  2.8

     negative rho (up, down):  2.092E-03 0.000E+00

     total cpu time spent up to now is       22.0 secs

     total energy              =     -48.22880206 Ry
     estimated scf accuracy    <       0.00000001 Ry

     iteration # 32     ecut=    60.00 Ry     beta= 0.70
     Davidson diagonalization with overlap
     ethr =  4.65E-11,  avg # of iterations =  5.9

     negative rho (up, down):  2.092E-03 0.000E+00

     total cpu time spent up to now is       22.7 secs

     total energy              =     -48.22880207 Ry
     estimated scf accuracy    <       0.00000001 Ry

     iteration # 33     ecut=    60.00 Ry     beta= 0.70
     Davidson diagonalization with overlap
     ethr =  4.65E-11,  avg # of iterations =  1.9

     negative rho (up, down):  2.093E-03 0.000E+00

     total cpu time spent up to now is       23.1 secs

     total energy              =     -48.22880207 Ry
     estimated scf accuracy    <       0.00000001 Ry

     iteration # 34     ecut=    60.00 Ry     beta= 0.70
     Davidson diagonalization with overlap
     ethr =  4.65E-11,  avg # of iterations =  1.1

     negative rho (up, down):  2.093E-03 0.000E+00

     total cpu time spent up to now is       23.5 secs

     End of self-consistent calculation

          k = 0.0000 0.0000 0.0000 (  4149 PWs)   bands (ev):

   -33.4015 -27.5139 -27.5139 -21.5525 -13.7209 -13.7209 -11.3223  -6.1769
    -2.0585  -2.0174  -2.0174   3.1248   5.2473   6.1582   6.3789   8.0115

          k = 0.0000 0.0962 0.0000 (  4170 PWs)   bands (ev):

   -33.5131 -27.7651 -27.4550 -21.4075 -13.7940 -13.1202 -10.8373  -6.5413
    -2.3707  -2.2083  -1.8970   2.8289   5.4517   6.1843   6.5576   7.9883

          k = 0.0000 0.1925 0.0000 (  4194 PWs)   bands (ev):

   -33.8009 -28.3811 -27.3195 -20.9734 -13.7023 -11.4712  -9.7234  -7.6472
    -3.1895  -2.6572  -1.5617   2.5890   6.0382   6.6921   7.0384   7.9741

          k = 0.0000 0.2887 0.0000 (  4186 PWs)   bands (ev):

   -34.1612 -29.1014 -27.1841 -20.2684 -13.1571  -9.3400  -9.0921  -8.3619
    -4.0886  -3.0694  -1.5151   2.8256   5.1345   7.1086   7.7233   7.8637

          k = 0.0000 0.3849 0.0000 (  4180 PWs)   bands (ev):

   -34.4916 -29.7239 -27.0944 -19.3371 -12.1564 -11.2248  -6.9446  -6.3269
    -4.8330  -3.3221  -2.2078   2.3346   3.3191   8.6143   9.1539   9.1848

          k = 0.0000 0.4811 0.0000 (  4172 PWs)   bands (ev):

   -34.7183 -30.1339 -27.0512 -18.3438 -12.8824 -10.9604  -5.7400  -5.3110
    -3.6812  -3.4537  -3.2809   0.1304   3.7757   7.8017  10.5562  10.7281

          k = 0.0000-0.5774 0.0000 (  4184 PWs)   bands (ev):

   -34.7989 -30.2762 -27.0397 -17.8107 -13.6500 -10.3159  -5.4750  -5.4121
    -3.5584  -3.4935  -2.3767  -0.9015   3.9602   6.5695  11.4735  11.5651

          k = 0.0833 0.1443 0.0000 (  4169 PWs)   bands (ev):

   -33.7098 -28.2516 -27.2983 -21.1163 -13.8099 -11.9523 -10.0638  -7.2517
    -3.2423  -2.2706  -1.6463   2.6634   5.8493   6.4974   6.8898   8.0004

          k = 0.0833 0.2406 0.0000 (  4180 PWs)   bands (ev):

   -34.0176 -29.0233 -27.0351 -20.5461 -13.5491  -9.8574  -8.8843  -8.5778
    -4.5272  -2.3206  -1.4495   2.8839   6.1495   6.7421   7.2972   7.5008

          k = 0.0833 0.3368 0.0000 (  4175 PWs)   bands (ev):

   -34.3329 -29.7946 -26.7914 -19.7237 -12.8411 -10.3040  -7.5890  -7.1675
    -5.6030  -2.3851  -1.8024   3.3622   3.4017   7.8072   8.5235   8.5469

          k = 0.0833 0.4330 0.0000 (  4187 PWs)   bands (ev):

   -34.5786 -30.3879 -26.6260 -18.7360 -12.0658 -11.7721  -6.3103  -6.2589
    -4.5115  -2.6819  -2.4381   0.9755   3.9563   8.5364   9.9976  10.0963

          k = 0.0833 0.5292 0.0000 (  4195 PWs)   bands (ev):

   -34.7111 -30.7061 -26.5470 -17.8795 -13.3593 -10.7848  -6.6581  -5.4832
    -3.9145  -2.4679  -2.0095  -0.3978   4.3102   6.8961  11.2930  11.4089

          k = 0.1667 0.2887 0.0000 (  4170 PWs)   bands (ev):

   -34.2505 -29.9479 -26.5257 -19.8537 -13.2164  -9.8015  -7.7964  -7.3860
    -6.2241  -1.8713  -1.6632   3.6843   3.7296   7.5073   8.2978   8.3290

          k = 0.1667 0.3849 0.0000 (  4172 PWs)   bands (ev):

   -34.4202 -30.8098 -26.0452 -18.9520 -12.5500 -11.2501  -7.5187  -6.6006
    -4.7619  -2.2545  -1.5608   1.4543   4.6240   8.3436   9.6188   9.7538

          k = 0.1667 0.4811 0.0000 (  4170 PWs)   bands (ev):

   -34.5033 -31.4126 -25.7233 -17.9981 -12.6546 -11.6866  -8.2442  -5.5513
    -4.3209  -1.5453  -1.3834   0.3896   5.3188   7.7316  10.8584  11.0522

          k = 0.1667 0.5774 0.0000 (  4178 PWs)   bands (ev):

   -34.5244 -31.6304 -25.6120 -17.4987 -13.3306 -11.2153  -8.4721  -5.4325
    -4.3356  -1.7770  -1.3267   1.3739   5.5621   6.5755  11.2282  11.5067

          k = 0.2500 0.4330 0.0000 (  4156 PWs)   bands (ev):

   -34.3756 -31.7400 -25.3481 -18.0550 -12.1667 -12.1254  -9.0369  -5.5610
    -4.4751  -1.3497  -1.0139   0.6929   6.1286   8.2630  10.2731  10.8584

          k = 0.2500 0.5292 0.0000 (  4161 PWs)   bands (ev):

   -34.2594 -32.3345 -24.9385 -17.3173 -12.9166 -11.7064  -9.8239  -5.3769
    -4.6296  -1.8896  -0.7468   3.1373   7.1931   7.2660  10.4996  10.7889

          k = 0.3333 0.5774 0.0000 (  4152 PWs)   bands (ev):

   -34.0558 -32.7775 -24.6281 -17.0185 -12.9339 -11.7238 -10.5006  -5.6918
    -4.3173  -2.2891  -0.5417   5.7679   7.0312   8.5684   8.6056   9.9306

     the Fermi energy is     3.4440 ev

!    total energy              =     -48.22880207 Ry
     estimated scf accuracy    <          9.7E-10 Ry
     smearing contrib. (-TS)   =      -0.00032937 Ry
     internal energy E=F+TS    =     -48.22847270 Ry

     The total energy is F=E-TS. E is the sum of the following terms:
     one-electron contribution =   -1339.40152459 Ry
     hartree contribution      =     676.92322079 Ry
     xc contribution           =     -32.41507353 Ry
     ewald contribution        =     646.66490463 Ry

     convergence has been achieved in  34 iterations

     negative rho (up, down):  2.093E-03 0.000E+00

     Forces acting on atoms (cartesian axes, Ry/au):

     atom    1 type  1   force =     0.00000000    0.00000000  -21.49231121
     atom    2 type  1   force =     0.00000000    0.00000000   -2.74983062
     atom    3 type  1   force =     0.00000000    0.00000000   -0.00089051
     atom    4 type  1   force =     0.00000000   -0.00000000    0.00312314
     atom    5 type  1   force =     0.00000000    0.00000000   21.49171994
     atom    6 type  1   force =     0.00000000   -0.00000000    2.74818927

     Total force =    30.641925     Total SCF correction =     0.000051


     Computing stress (Cartesian axis) and pressure


     negative rho (up, down):  2.093E-03 0.000E+00
          total   stress  (Ry/bohr**3)                   (kbar)     P=     5823.59
   0.01663410   0.00000000   0.00000000         2446.96        0.00        0.00
   0.00000000   0.01663410  -0.00000000            0.00     2446.96       -0.00
   0.00000000  -0.00000000   0.08549564            0.00       -0.00    12576.84


     Writing all to output data dir /run/media/rfa/SATA/Skripsi/DFT/Graphene-copy/tmp/gr-ab-3L.save/ :
     XML data file, charge density, pseudopotentials, collected wavefunctions

     init_run     :      0.67s CPU      0.85s WALL (       1 calls)
     electrons    :     40.11s CPU     22.61s WALL (       1 calls)
     forces       :      0.10s CPU      0.06s WALL (       1 calls)
     stress       :      0.34s CPU      0.21s WALL (       1 calls)

     Called by init_run:
     wfcinit      :      0.30s CPU      0.19s WALL (       1 calls)
     potinit      :      0.01s CPU      0.01s WALL (       1 calls)
     hinit0       :      0.34s CPU      0.63s WALL (       1 calls)

     Called by electrons:
     c_bands      :     35.19s CPU     19.66s WALL (      34 calls)
     sum_band     :      4.23s CPU      2.39s WALL (      34 calls)
     v_of_rho     :      0.24s CPU      0.22s WALL (      35 calls)
     newd         :      0.21s CPU      0.20s WALL (      35 calls)
     mix_rho      :      0.20s CPU      0.11s WALL (      34 calls)

     Called by c_bands:
     init_us_2    :      0.78s CPU      0.40s WALL (    1349 calls)
     cegterg      :     34.07s CPU     19.07s WALL (     646 calls)

     Called by *egterg:
     cdiaghg      :      2.78s CPU      1.48s WALL (    4321 calls)
     h_psi        :     24.96s CPU     14.19s WALL (    4340 calls)
     s_psi        :      0.97s CPU      0.53s WALL (    4340 calls)
     g_psi        :      0.22s CPU      0.12s WALL (    3675 calls)

     Called by h_psi:
     h_psi:calbec :      3.06s CPU      1.73s WALL (    4340 calls)
     vloc_psi     :     20.16s CPU     11.47s WALL (    4340 calls)
     add_vuspsi   :      1.41s CPU      0.79s WALL (    4340 calls)

     General routines
     calbec       :      3.58s CPU      2.04s WALL (    5309 calls)
     fft          :      0.42s CPU      0.70s WALL (     410 calls)
     ffts         :      0.02s CPU      0.01s WALL (      34 calls)
     fftw         :     19.58s CPU     11.20s WALL (   82976 calls)

     Parallel routines

     PWSCF        :     41.27s CPU     23.83s WALL


   This run was terminated on:  14:31:13  18Mar2025            

=------------------------------------------------------------------------------=
   JOB DONE.
=------------------------------------------------------------------------------=
