
     Program PWSCF v.7.4.1 starts on 18Mar2025 at 14:30:35 

     This program is part of the open-source Quantum ESPRESSO suite
     for quantum simulation of materials; please cite
         "P. Giannozzi et al., J. Phys.:Condens. Matter 21 395502 (2009);
         "P. Giannozzi et al., J. Phys.:Condens. Matter 29 465901 (2017);
         "P. Giannozzi et al., J. Chem. Phys. 152 154105 (2020);
          URL http://www.quantum-espresso.org", 
     in publications or presentations arising from this work. More details at
     http://www.quantum-espresso.org/quote

     Parallel version (MPI), running on     7 processors

     MPI processes distributed on     1 nodes
     4539 MiB available memory on the printing compute node when the environment starts

     Waiting for input...
     Reading input from standard input

     Current dimensions of program PWSCF are:
     Max number of different atomic species (ntypx) = 10
     Max number of k-points (npk) =  40000
     Max angular momentum in pseudopotentials (lmaxx) =  4

     R & G space division:  proc/nbgrp/npool/nimage =       7
     Subspace diagonalization in iterative solution of the eigenvalue problem:
     a serial algorithm will be used


     Parallelization info
     --------------------
     sticks:   dense  smooth     PW     G-vecs:    dense   smooth      PW
     Min          51      51     15                 4783     4783     805
     Max          52      52     16                 4800     4800     826
     Sum         361     361    109                33523    33523    5717

     Using Slab Decomposition



     bravais-lattice index     =            4
     lattice parameter (alat)  =       4.6561  a.u.
     unit-cell volume          =     532.1899 (a.u.)^3
     number of atoms/cell      =            6
     number of atomic types    =            1
     number of electrons       =        24.00
     number of Kohn-Sham states=           16
     kinetic-energy cutoff     =      60.0000  Ry
     charge density cutoff     =     240.0000  Ry
     scf convergence threshold =      1.0E-08
     mixing beta               =       0.7000
     number of iterations used =            8  plain     mixing
     Exchange-correlation= PBE
                           (   1   4   3   4   0   0   0)

     celldm(1)=   4.656107  celldm(2)=   0.000000  celldm(3)=   6.087896
     celldm(4)=   0.000000  celldm(5)=   0.000000  celldm(6)=   0.000000

     crystal axes: (cart. coord. in units of alat)
               a(1) = (   1.000000   0.000000   0.000000 )  
               a(2) = (  -0.500000   0.866025   0.000000 )  
               a(3) = (   0.000000   0.000000   6.087896 )  

     reciprocal axes: (cart. coord. in units 2 pi/alat)
               b(1) = (  1.000000  0.577350 -0.000000 )  
               b(2) = (  0.000000  1.154701  0.000000 )  
               b(3) = (  0.000000 -0.000000  0.164260 )  


     PseudoPot. # 1 for C  read from file:
     /run/media/rfa/SATA/Skripsi/DFT/Graphene-copy/pseudo/C.pbe-n-rrkjus_psl.0.1.UPF
     MD5 check sum: 96a6a315177d77e6c95bf6fd3870f9e3
     Pseudo is Ultrasoft + core correction, Zval =  4.0
     Generated using &quot;atomic&quot; code by A. Dal Corso  v.6.3MaX
     Using radial grid of 1073 points,  4 beta functions with: 
                l(1) =   0
                l(2) =   0
                l(3) =   1
                l(4) =   1
     Q(r) pseudized with 0 coefficients 


     atomic species   valence    mass     pseudopotential
     C                 4.00    12.01070     C ( 1.00)

      6 Sym. Ops. (no inversion) found



   Cartesian axes

     site n.     atom                  positions (alat units)
         1        C      tau(   1) = (   0.0000000   0.5773503   3.0439478  )
         2        C      tau(   2) = (   0.5000000   0.2886751   3.0439478  )
         3        C      tau(   3) = (   0.0000000   0.0000000   3.2468777  )
         4        C      tau(   4) = (   0.0000000   0.5773503   3.2468777  )
         5        C      tau(   5) = (   0.0000000   0.5773503   3.4498075  )
         6        C      tau(   6) = (   0.5000000   0.2886751   3.4498075  )

     number of k points=    10  Marzari-Vanderbilt smearing, width (Ry)=  0.0200
                       cart. coord. in units 2pi/alat
        k(    1) = (   0.0000000   0.0000000   0.0000000), wk =   0.0312500
        k(    2) = (   0.0000000   0.1443376   0.0000000), wk =   0.1875000
        k(    3) = (   0.0000000   0.2886751   0.0000000), wk =   0.1875000
        k(    4) = (   0.0000000   0.4330127   0.0000000), wk =   0.1875000
        k(    5) = (   0.0000000  -0.5773503   0.0000000), wk =   0.0937500
        k(    6) = (   0.1250000   0.2165064   0.0000000), wk =   0.1875000
        k(    7) = (   0.1250000   0.3608439   0.0000000), wk =   0.3750000
        k(    8) = (   0.1250000   0.5051815   0.0000000), wk =   0.3750000
        k(    9) = (   0.2500000   0.4330127   0.0000000), wk =   0.1875000
        k(   10) = (   0.2500000   0.5773503   0.0000000), wk =   0.1875000

     Dense  grid:    33523 G-vectors     FFT dimensions: (  24,  24, 144)

     Estimated max dynamical RAM per process >       9.56 MB

     Estimated total dynamical RAM >      66.92 MB

     Check: negative core charge=   -0.000004

     Initial potential from superposition of free atoms

     starting charge      23.9998, renormalised to      24.0000

     negative rho (up, down):  1.394E-04 0.000E+00
     Starting wfcs are   24 randomized atomic wfcs

     total cpu time spent up to now is        0.8 secs

     per-process dynamical memory:    11.8 Mb

     Self-consistent Calculation

     iteration #  1     ecut=    60.00 Ry     beta= 0.70
     Davidson diagonalization with overlap
     ethr =  1.00E-02,  avg # of iterations =  9.3

     negative rho (up, down):  2.773E-03 0.000E+00

     total cpu time spent up to now is        1.4 secs

     total energy              =     -40.40587672 Ry
     estimated scf accuracy    <      19.04291420 Ry

     iteration #  2     ecut=    60.00 Ry     beta= 0.70
     Davidson diagonalization with overlap
     ethr =  1.00E-02,  avg # of iterations = 12.1

     total cpu time spent up to now is        2.1 secs

     total energy              =     -39.29691700 Ry
     estimated scf accuracy    <      27.89094366 Ry

     iteration #  3     ecut=    60.00 Ry     beta= 0.70
     Davidson diagonalization with overlap
     ethr =  1.00E-02,  avg # of iterations =  8.6

     total cpu time spent up to now is        2.6 secs

     total energy              =     -48.17857257 Ry
     estimated scf accuracy    <       1.55053773 Ry

     iteration #  4     ecut=    60.00 Ry     beta= 0.70
     Davidson diagonalization with overlap
     ethr =  6.46E-03,  avg # of iterations =  3.0

     total cpu time spent up to now is        2.8 secs

     total energy              =     -48.12301094 Ry
     estimated scf accuracy    <       0.66699925 Ry

     iteration #  5     ecut=    60.00 Ry     beta= 0.70
     Davidson diagonalization with overlap
     ethr =  2.78E-03,  avg # of iterations =  4.0

     total cpu time spent up to now is        3.1 secs

     total energy              =     -48.16650815 Ry
     estimated scf accuracy    <       0.46796872 Ry

     iteration #  6     ecut=    60.00 Ry     beta= 0.70
     Davidson diagonalization with overlap
     ethr =  1.95E-03,  avg # of iterations =  2.2

     negative rho (up, down):  2.321E-07 0.000E+00

     total cpu time spent up to now is        3.3 secs

     total energy              =     -48.18418810 Ry
     estimated scf accuracy    <       0.16559024 Ry

     iteration #  7     ecut=    60.00 Ry     beta= 0.70
     Davidson diagonalization with overlap
     ethr =  6.90E-04,  avg # of iterations =  6.1

     negative rho (up, down):  2.078E-06 0.000E+00

     total cpu time spent up to now is        3.7 secs

     total energy              =     -48.20676578 Ry
     estimated scf accuracy    <       0.08458393 Ry

     iteration #  8     ecut=    60.00 Ry     beta= 0.70
     Davidson diagonalization with overlap
     ethr =  3.52E-04,  avg # of iterations =  6.5

     negative rho (up, down):  8.592E-04 0.000E+00

     total cpu time spent up to now is        4.0 secs

     total energy              =     -48.20796990 Ry
     estimated scf accuracy    <       0.02101937 Ry

     iteration #  9     ecut=    60.00 Ry     beta= 0.70
     Davidson diagonalization with overlap
     ethr =  8.76E-05,  avg # of iterations = 16.9

     negative rho (up, down):  8.803E-04 0.000E+00

     total cpu time spent up to now is        4.7 secs

     total energy              =     -48.23449260 Ry
     estimated scf accuracy    <       0.01181046 Ry

     iteration # 10     ecut=    60.00 Ry     beta= 0.70
     Davidson diagonalization with overlap
     ethr =  4.92E-05,  avg # of iterations =  2.4

     negative rho (up, down):  4.171E-03 0.000E+00

     total cpu time spent up to now is        4.9 secs

     total energy              =     -48.23920808 Ry
     estimated scf accuracy    <       0.01345003 Ry

     iteration # 11     ecut=    60.00 Ry     beta= 0.70
     Davidson diagonalization with overlap
     ethr =  4.92E-05,  avg # of iterations =  7.5

     negative rho (up, down):  9.591E-04 0.000E+00

     total cpu time spent up to now is        5.3 secs

     total energy              =     -48.23309449 Ry
     estimated scf accuracy    <       0.02083190 Ry

     iteration # 12     ecut=    60.00 Ry     beta= 0.70
     Davidson diagonalization with overlap
     ethr =  4.92E-05,  avg # of iterations =  5.9

     negative rho (up, down):  1.324E-03 0.000E+00

     total cpu time spent up to now is        5.6 secs

     total energy              =     -48.23219428 Ry
     estimated scf accuracy    <       0.00774412 Ry

     iteration # 13     ecut=    60.00 Ry     beta= 0.70
     Davidson diagonalization with overlap
     c_bands:  1 eigenvalues not converged
     ethr =  3.23E-05,  avg # of iterations =  7.7

     negative rho (up, down):  1.500E-03 0.000E+00

     total cpu time spent up to now is        5.9 secs

     total energy              =     -48.23324481 Ry
     estimated scf accuracy    <       0.00251477 Ry

     iteration # 14     ecut=    60.00 Ry     beta= 0.70
     Davidson diagonalization with overlap
     ethr =  1.05E-05,  avg # of iterations =  7.8

     negative rho (up, down):  1.712E-03 0.000E+00

     total cpu time spent up to now is        6.2 secs

     total energy              =     -48.23351899 Ry
     estimated scf accuracy    <       0.00228215 Ry

     iteration # 15     ecut=    60.00 Ry     beta= 0.70
     Davidson diagonalization with overlap
     ethr =  9.51E-06,  avg # of iterations =  1.5

     negative rho (up, down):  1.822E-03 0.000E+00

     total cpu time spent up to now is        6.4 secs

     total energy              =     -48.23357329 Ry
     estimated scf accuracy    <       0.00185445 Ry

     iteration # 16     ecut=    60.00 Ry     beta= 0.70
     Davidson diagonalization with overlap
     ethr =  7.73E-06,  avg # of iterations =  1.0

     negative rho (up, down):  1.998E-03 0.000E+00

     total cpu time spent up to now is        6.6 secs

     total energy              =     -48.23357313 Ry
     estimated scf accuracy    <       0.00169166 Ry

     iteration # 17     ecut=    60.00 Ry     beta= 0.70
     Davidson diagonalization with overlap
     ethr =  7.05E-06,  avg # of iterations =  1.5

     negative rho (up, down):  1.955E-03 0.000E+00

     total cpu time spent up to now is        6.8 secs

     total energy              =     -48.23364461 Ry
     estimated scf accuracy    <       0.00150293 Ry

     iteration # 18     ecut=    60.00 Ry     beta= 0.70
     Davidson diagonalization with overlap
     ethr =  6.26E-06,  avg # of iterations =  1.0

     negative rho (up, down):  1.818E-03 0.000E+00

     total cpu time spent up to now is        7.0 secs

     total energy              =     -48.23355851 Ry
     estimated scf accuracy    <       0.00153556 Ry

     iteration # 19     ecut=    60.00 Ry     beta= 0.70
     Davidson diagonalization with overlap
     ethr =  6.26E-06,  avg # of iterations =  2.2

     negative rho (up, down):  2.102E-03 0.000E+00

     total cpu time spent up to now is        7.3 secs

     total energy              =     -48.23337270 Ry
     estimated scf accuracy    <       0.00146262 Ry

     iteration # 20     ecut=    60.00 Ry     beta= 0.70
     Davidson diagonalization with overlap
     ethr =  6.09E-06,  avg # of iterations =  2.1

     negative rho (up, down):  2.166E-03 0.000E+00

     total cpu time spent up to now is        7.5 secs

     total energy              =     -48.23341083 Ry
     estimated scf accuracy    <       0.00061724 Ry

     iteration # 21     ecut=    60.00 Ry     beta= 0.70
     Davidson diagonalization with overlap
     c_bands:  3 eigenvalues not converged
     ethr =  2.57E-06,  avg # of iterations =  7.1

     negative rho (up, down):  2.181E-03 0.000E+00

     total cpu time spent up to now is        7.8 secs

     total energy              =     -48.23345483 Ry
     estimated scf accuracy    <       0.00042668 Ry

     iteration # 22     ecut=    60.00 Ry     beta= 0.70
     Davidson diagonalization with overlap
     c_bands:  2 eigenvalues not converged
     ethr =  1.78E-06,  avg # of iterations =  6.7

     negative rho (up, down):  2.147E-03 0.000E+00

     total cpu time spent up to now is        8.2 secs

     total energy              =     -48.23346265 Ry
     estimated scf accuracy    <       0.00027560 Ry

     iteration # 23     ecut=    60.00 Ry     beta= 0.70
     Davidson diagonalization with overlap
     c_bands:  2 eigenvalues not converged
     ethr =  1.15E-06,  avg # of iterations =  5.1

     negative rho (up, down):  2.104E-03 0.000E+00

     total cpu time spent up to now is        8.4 secs

     total energy              =     -48.23346413 Ry
     estimated scf accuracy    <       0.00015234 Ry

     iteration # 24     ecut=    60.00 Ry     beta= 0.70
     Davidson diagonalization with overlap
     ethr =  6.35E-07,  avg # of iterations =  4.8

     negative rho (up, down):  2.106E-03 0.000E+00

     total cpu time spent up to now is        8.7 secs

     total energy              =     -48.23348647 Ry
     estimated scf accuracy    <       0.00007306 Ry

     iteration # 25     ecut=    60.00 Ry     beta= 0.70
     Davidson diagonalization with overlap
     ethr =  3.04E-07,  avg # of iterations =  4.1

     negative rho (up, down):  2.090E-03 0.000E+00

     total cpu time spent up to now is        9.0 secs

     total energy              =     -48.23350067 Ry
     estimated scf accuracy    <       0.00004787 Ry

     iteration # 26     ecut=    60.00 Ry     beta= 0.70
     Davidson diagonalization with overlap
     ethr =  1.99E-07,  avg # of iterations =  2.5

     negative rho (up, down):  2.111E-03 0.000E+00

     total cpu time spent up to now is        9.3 secs

     total energy              =     -48.23350009 Ry
     estimated scf accuracy    <       0.00003396 Ry

     iteration # 27     ecut=    60.00 Ry     beta= 0.70
     Davidson diagonalization with overlap
     ethr =  1.41E-07,  avg # of iterations =  4.4

     negative rho (up, down):  2.128E-03 0.000E+00

     total cpu time spent up to now is        9.6 secs

     total energy              =     -48.23350531 Ry
     estimated scf accuracy    <       0.00000924 Ry

     iteration # 28     ecut=    60.00 Ry     beta= 0.70
     Davidson diagonalization with overlap
     ethr =  3.85E-08,  avg # of iterations =  6.6

     negative rho (up, down):  2.137E-03 0.000E+00

     total cpu time spent up to now is       10.0 secs

     total energy              =     -48.23351295 Ry
     estimated scf accuracy    <       0.00000048 Ry

     iteration # 29     ecut=    60.00 Ry     beta= 0.70
     Davidson diagonalization with overlap
     ethr =  2.02E-09,  avg # of iterations = 13.7

     negative rho (up, down):  2.135E-03 0.000E+00

     total cpu time spent up to now is       10.8 secs

     total energy              =     -48.23351484 Ry
     estimated scf accuracy    <       0.00000081 Ry

     iteration # 30     ecut=    60.00 Ry     beta= 0.70
     Davidson diagonalization with overlap
     ethr =  2.02E-09,  avg # of iterations =  1.3

     negative rho (up, down):  2.133E-03 0.000E+00

     total cpu time spent up to now is       11.0 secs

     total energy              =     -48.23351466 Ry
     estimated scf accuracy    <       0.00000041 Ry

     iteration # 31     ecut=    60.00 Ry     beta= 0.70
     Davidson diagonalization with overlap
     ethr =  1.72E-09,  avg # of iterations =  2.4

     negative rho (up, down):  2.131E-03 0.000E+00

     total cpu time spent up to now is       11.2 secs

     total energy              =     -48.23351473 Ry
     estimated scf accuracy    <       0.00000002 Ry

     iteration # 32     ecut=    60.00 Ry     beta= 0.70
     Davidson diagonalization with overlap
     ethr =  8.66E-11,  avg # of iterations = 14.4

     negative rho (up, down):  2.132E-03 0.000E+00

     total cpu time spent up to now is       12.2 secs

     total energy              =     -48.23351480 Ry
     estimated scf accuracy    <       0.00000017 Ry

     iteration # 33     ecut=    60.00 Ry     beta= 0.70
     Davidson diagonalization with overlap
     ethr =  8.66E-11,  avg # of iterations =  3.3

     negative rho (up, down):  2.132E-03 0.000E+00

     total cpu time spent up to now is       12.4 secs

     total energy              =     -48.23351480 Ry
     estimated scf accuracy    <       0.00000005 Ry

     iteration # 34     ecut=    60.00 Ry     beta= 0.70
     Davidson diagonalization with overlap
     ethr =  8.66E-11,  avg # of iterations =  3.9

     negative rho (up, down):  2.132E-03 0.000E+00

     total cpu time spent up to now is       12.7 secs

     total energy              =     -48.23351480 Ry
     estimated scf accuracy    <       0.00000001 Ry

     iteration # 35     ecut=    60.00 Ry     beta= 0.70
     Davidson diagonalization with overlap
     ethr =  4.45E-11,  avg # of iterations =  5.4

     negative rho (up, down):  2.132E-03 0.000E+00

     total cpu time spent up to now is       13.1 secs

     End of self-consistent calculation

          k = 0.0000 0.0000 0.0000 (  4149 PWs)   bands (ev):

   -33.6048 -27.6714 -27.6714 -21.6384 -13.9199 -13.9199 -11.4027  -6.2536
    -2.2382  -2.1192  -2.1192   3.0807   5.2676   6.1705   6.3856   7.9562

          k = 0.0000 0.1443 0.0000 (  4192 PWs)   bands (ev):

   -33.8408 -28.2038 -27.5557 -21.3138 -13.9859 -12.6042 -10.4089  -7.0905
    -2.8511  -2.5068  -1.9096   2.5843   5.7186   6.3798   6.7628   7.9315

          k = 0.0000 0.2887 0.0000 (  4186 PWs)   bands (ev):

   -34.3545 -29.2650 -27.3603 -20.3565 -13.3474  -9.4335  -9.2833  -8.4282
    -4.1919  -3.1443  -1.6830   2.7597   5.0467   7.0709   7.7438   7.8202

          k = 0.0000 0.4330 0.0000 (  4186 PWs)   bands (ev):

   -34.8103 -30.1260 -27.2537 -18.9200 -12.2051 -11.7517  -6.3333  -5.2131
    -5.1257  -3.4754  -2.9143   1.0649   3.5189   8.7845   9.4788   9.9845

          k = 0.0000-0.5774 0.0000 (  4184 PWs)   bands (ev):

   -34.9863 -30.4429 -27.2289 -17.9044 -13.7401 -10.5319  -5.5788  -5.4705
    -3.6790  -3.5692  -2.5594  -0.9643   3.9191   6.3915  11.4335  11.4554

          k = 0.1250 0.2165 0.0000 (  4163 PWs)   bands (ev):

   -34.1910 -29.2020 -27.1571 -20.6671 -13.8137 -10.1208  -9.0298  -8.5436
    -4.7545  -2.2518  -1.6199   2.8588   6.2167   6.6458   7.2591   7.4146

          k = 0.1250 0.3608 0.0000 (  4180 PWs)   bands (ev):

   -34.5826 -30.4620 -26.6116 -19.4523 -12.9058 -10.8773  -7.1607  -6.6772
    -6.1277  -2.2123  -2.0118   2.2949   3.8729   8.0148   9.0027   9.1253

          k = 0.1250 0.5052 0.0000 (  4183 PWs)   bands (ev):

   -34.8018 -31.2439 -26.3024 -18.0341 -13.1272 -11.4559  -7.5846  -5.5815
    -4.2794  -1.9183  -1.8858  -0.0823   4.6897   7.1061  11.0921  11.1707

          k = 0.2500 0.4330 0.0000 (  4156 PWs)   bands (ev):

   -34.5656 -31.9098 -25.5297 -18.1472 -12.3399 -12.2633  -9.1279  -5.6028
    -4.6283  -1.4551  -1.0706   0.5550   6.0405   8.0970  10.2223  10.8449

          k = 0.2500 0.5774 0.0000 (  4160 PWs)   bands (ev):

   -34.4260 -32.5892 -25.0669 -17.2898 -13.1397 -11.8622 -10.0086  -5.6530
    -4.5049  -2.1214  -0.7673   3.6861   6.6195   7.2515  10.4778  10.5492

     the Fermi energy is     3.6160 ev

!    total energy              =     -48.23351481 Ry
     estimated scf accuracy    <          5.9E-11 Ry
     smearing contrib. (-TS)   =      -0.00128943 Ry
     internal energy E=F+TS    =     -48.23222538 Ry

     The total energy is F=E-TS. E is the sum of the following terms:
     one-electron contribution =   -1339.17637066 Ry
     hartree contribution      =     676.69376897 Ry
     xc contribution           =     -32.41452832 Ry
     ewald contribution        =     646.66490463 Ry

     convergence has been achieved in  35 iterations

     negative rho (up, down):  2.132E-03 0.000E+00

     Forces acting on atoms (cartesian axes, Ry/au):

     atom    1 type  1   force =     0.00000000    0.00000000  -21.47461127
     atom    2 type  1   force =     0.00000000    0.00000000   -2.79880948
     atom    3 type  1   force =     0.00000000    0.00000000   -0.00089316
     atom    4 type  1   force =     0.00000000    0.00000000    0.00313687
     atom    5 type  1   force =     0.00000000    0.00000000   21.47402620
     atom    6 type  1   force =     0.00000000   -0.00000000    2.79715085

     Total force =    30.625971     Total SCF correction =     0.000033


     Computing stress (Cartesian axis) and pressure


     negative rho (up, down):  2.132E-03 0.000E+00
          total   stress  (Ry/bohr**3)                   (kbar)     P=     5818.16
   0.01652235   0.00000000   0.00000000         2430.52        0.00        0.00
   0.00000000   0.01652235   0.00000000            0.00     2430.52        0.00
   0.00000000  -0.00000000   0.08560848            0.00       -0.00    12593.44


     Writing all to output data dir /run/media/rfa/SATA/Skripsi/DFT/Graphene-copy/tmp/gr-ab-3L.save/ :
     XML data file, charge density, pseudopotentials, collected wavefunctions

     init_run     :      0.52s CPU      0.76s WALL (       1 calls)
     electrons    :     21.95s CPU     12.29s WALL (       1 calls)
     forces       :      0.07s CPU      0.04s WALL (       1 calls)
     stress       :      0.21s CPU      0.14s WALL (       1 calls)

     Called by init_run:
     wfcinit      :      0.16s CPU      0.10s WALL (       1 calls)
     potinit      :      0.01s CPU      0.01s WALL (       1 calls)
     hinit0       :      0.33s CPU      0.62s WALL (       1 calls)

     Called by electrons:
     c_bands      :     18.70s CPU     10.32s WALL (      35 calls)
     sum_band     :      2.57s CPU      1.43s WALL (      35 calls)
     v_of_rho     :      0.23s CPU      0.22s WALL (      36 calls)
     newd         :      0.22s CPU      0.19s WALL (      36 calls)
     mix_rho      :      0.21s CPU      0.12s WALL (      35 calls)

     Called by c_bands:
     init_us_2    :      0.43s CPU      0.22s WALL (     730 calls)
     cegterg      :     18.10s CPU     10.00s WALL (     350 calls)

     Called by *egterg:
     cdiaghg      :      1.41s CPU      0.75s WALL (    2300 calls)
     h_psi        :     13.22s CPU      7.40s WALL (    2310 calls)
     s_psi        :      0.52s CPU      0.28s WALL (    2310 calls)
     g_psi        :      0.10s CPU      0.06s WALL (    1950 calls)

     Called by h_psi:
     h_psi:calbec :      1.66s CPU      0.92s WALL (    2310 calls)
     vloc_psi     :     10.58s CPU      5.94s WALL (    2310 calls)
     add_vuspsi   :      0.79s CPU      0.43s WALL (    2310 calls)

     General routines
     calbec       :      1.95s CPU      1.10s WALL (    2830 calls)
     fft          :      0.40s CPU      0.69s WALL (     421 calls)
     ffts         :      0.01s CPU      0.01s WALL (      35 calls)
     fftw         :     10.26s CPU      5.79s WALL (   44184 calls)

     Parallel routines

     PWSCF        :     22.81s CPU     13.30s WALL


   This run was terminated on:  14:30:48  18Mar2025            

=------------------------------------------------------------------------------=
   JOB DONE.
=------------------------------------------------------------------------------=
