
     Program PWSCF v.7.4.1 starts on 22Apr2025 at  4: 7:30 

     This program is part of the open-source Quantum ESPRESSO suite
     for quantum simulation of materials; please cite
         "P. Giannozzi et al., J. Phys.:Condens. Matter 21 395502 (2009);
         "P. Giannozzi et al., J. Phys.:Condens. Matter 29 465901 (2017);
         "P. Giannozzi et al., J. Chem. Phys. 152 154105 (2020);
          URL http://www.quantum-espresso.org", 
     in publications or presentations arising from this work. More details at
     http://www.quantum-espresso.org/quote

     Parallel version (MPI), running on     7 processors

     MPI processes distributed on     1 nodes
     12181 MiB available memory on the printing compute node when the environment starts

     Waiting for input...
     Reading input from standard input

     Current dimensions of program PWSCF are:
     Max number of different atomic species (ntypx) = 10
     Max number of k-points (npk) =  40000
     Max angular momentum in pseudopotentials (lmaxx) =  4

     R & G space division:  proc/nbgrp/npool/nimage =       7
     Subspace diagonalization in iterative solution of the eigenvalue problem:
     a serial algorithm will be used


     Parallelization info
     --------------------
     sticks:   dense  smooth     PW     G-vecs:    dense   smooth      PW
     Min          60      60     17                 6028     6028    1003
     Max          61      61     18                 6053     6053    1030
     Sum         421     421    121                42223    42223    7091

     Using Slab Decomposition



     bravais-lattice index     =            4
     lattice parameter (alat)  =       4.6561  a.u.
     unit-cell volume          =     532.1899 (a.u.)^3
     number of atoms/cell      =            4
     number of atomic types    =            1
     number of electrons       =        16.00
     number of Kohn-Sham states=           12
     kinetic-energy cutoff     =      70.0000  Ry
     charge density cutoff     =     280.0000  Ry
     scf convergence threshold =      1.0E-08
     mixing beta               =       0.7000
     number of iterations used =            8  plain     mixing
     Exchange-correlation= PBE
                           (   1   4   3   4   0   0   0)

     celldm(1)=   4.656107  celldm(2)=   0.000000  celldm(3)=   6.087896
     celldm(4)=   0.000000  celldm(5)=   0.000000  celldm(6)=   0.000000

     crystal axes: (cart. coord. in units of alat)
               a(1) = (   1.000000   0.000000   0.000000 )  
               a(2) = (  -0.500000   0.866025   0.000000 )  
               a(3) = (   0.000000   0.000000   6.087896 )  

     reciprocal axes: (cart. coord. in units 2 pi/alat)
               b(1) = (  1.000000  0.577350 -0.000000 )  
               b(2) = (  0.000000  1.154701  0.000000 )  
               b(3) = (  0.000000 -0.000000  0.164260 )  


     PseudoPot. # 1 for C  read from file:
     /run/media/rfa/SATA/Skripsi/DFT/dft-graphene/pseudo/C.pbe-n-rrkjus_psl.0.1.UPF
     MD5 check sum: 96a6a315177d77e6c95bf6fd3870f9e3
     Pseudo is Ultrasoft + core correction, Zval =  4.0
     Generated using &quot;atomic&quot; code by A. Dal Corso  v.6.3MaX
     Using radial grid of 1073 points,  4 beta functions with: 
                l(1) =   0
                l(2) =   0
                l(3) =   1
                l(4) =   1
     Q(r) pseudized with 0 coefficients 


     atomic species   valence    mass     pseudopotential
     C                 4.00    12.01070     C ( 1.00)

     12 Sym. Ops. (no inversion) found



   Cartesian axes

     site n.     atom                  positions (alat units)
         1        C      tau(   1) = (   0.0000000   0.5773503   3.0439478  )
         2        C      tau(   2) = (   0.5000000   0.2886751   3.0439478  )
         3        C      tau(   3) = (   0.0000000   0.5773503   3.2468777  )
         4        C      tau(   4) = (   0.5000000   0.2886751   3.2468777  )

     number of k points=    19  Marzari-Vanderbilt smearing, width (Ry)=  0.0200
                       cart. coord. in units 2pi/alat
        k(    1) = (   0.0000000   0.0000000   0.0000000), wk =   0.0138889
        k(    2) = (   0.0000000   0.0962250   0.0000000), wk =   0.0833333
        k(    3) = (   0.0000000   0.1924501   0.0000000), wk =   0.0833333
        k(    4) = (   0.0000000   0.2886751   0.0000000), wk =   0.0833333
        k(    5) = (   0.0000000   0.3849002   0.0000000), wk =   0.0833333
        k(    6) = (   0.0000000   0.4811252   0.0000000), wk =   0.0833333
        k(    7) = (   0.0000000  -0.5773503   0.0000000), wk =   0.0416667
        k(    8) = (   0.0833333   0.1443376   0.0000000), wk =   0.0833333
        k(    9) = (   0.0833333   0.2405626   0.0000000), wk =   0.1666667
        k(   10) = (   0.0833333   0.3367877   0.0000000), wk =   0.1666667
        k(   11) = (   0.0833333   0.4330127   0.0000000), wk =   0.1666667
        k(   12) = (   0.0833333   0.5292377   0.0000000), wk =   0.1666667
        k(   13) = (   0.1666667   0.2886751   0.0000000), wk =   0.0833333
        k(   14) = (   0.1666667   0.3849002   0.0000000), wk =   0.1666667
        k(   15) = (   0.1666667   0.4811252   0.0000000), wk =   0.1666667
        k(   16) = (   0.1666667   0.5773503   0.0000000), wk =   0.0833333
        k(   17) = (   0.2500000   0.4330127   0.0000000), wk =   0.0833333
        k(   18) = (   0.2500000   0.5292377   0.0000000), wk =   0.1666667
        k(   19) = (   0.3333333   0.5773503   0.0000000), wk =   0.0277778

     Dense  grid:    42223 G-vectors     FFT dimensions: (  25,  25, 160)

     Estimated max dynamical RAM per process >      11.95 MB

     Estimated total dynamical RAM >      83.65 MB

     Check: negative core charge=   -0.000004

     Initial potential from superposition of free atoms

     starting charge      15.9998, renormalised to      16.0000

     negative rho (up, down):  4.124E-05 0.000E+00
     Starting wfcs are   16 randomized atomic wfcs

     total cpu time spent up to now is        0.7 secs

     per-process dynamical memory:    13.3 Mb

     Self-consistent Calculation

     iteration #  1     ecut=    70.00 Ry     beta= 0.70
     Davidson diagonalization with overlap
     ethr =  1.00E-02,  avg # of iterations =  8.3

     negative rho (up, down):  1.522E-04 0.000E+00

     total cpu time spent up to now is        1.6 secs

     total energy              =     -22.62670859 Ry
     estimated scf accuracy    <       9.88148189 Ry

     iteration #  2     ecut=    70.00 Ry     beta= 0.70
     Davidson diagonalization with overlap
     c_bands:  1 eigenvalues not converged
     ethr =  1.00E-02,  avg # of iterations = 10.2

     total cpu time spent up to now is        2.6 secs

     total energy              =     -23.67013615 Ry
     estimated scf accuracy    <       6.80845650 Ry

     iteration #  3     ecut=    70.00 Ry     beta= 0.70
     Davidson diagonalization with overlap
     ethr =  1.00E-02,  avg # of iterations =  5.3

     total cpu time spent up to now is        3.1 secs

     total energy              =     -26.13198375 Ry
     estimated scf accuracy    <       0.38993001 Ry

     iteration #  4     ecut=    70.00 Ry     beta= 0.70
     Davidson diagonalization with overlap
     ethr =  2.44E-03,  avg # of iterations =  4.8

     total cpu time spent up to now is        3.7 secs

     total energy              =     -26.09489157 Ry
     estimated scf accuracy    <       0.19527166 Ry

     iteration #  5     ecut=    70.00 Ry     beta= 0.70
     Davidson diagonalization with overlap
     ethr =  1.22E-03,  avg # of iterations =  5.6

     total cpu time spent up to now is        4.2 secs

     total energy              =     -26.12890949 Ry
     estimated scf accuracy    <       0.00913420 Ry

     iteration #  6     ecut=    70.00 Ry     beta= 0.70
     Davidson diagonalization with overlap
     c_bands:  1 eigenvalues not converged
     c_bands:  1 eigenvalues not converged
     c_bands:  1 eigenvalues not converged
     c_bands:  1 eigenvalues not converged
     c_bands:  1 eigenvalues not converged
     c_bands:  1 eigenvalues not converged
     ethr =  5.71E-05,  avg # of iterations = 15.3

     total cpu time spent up to now is        5.5 secs

     total energy              =     -26.14353739 Ry
     estimated scf accuracy    <       0.00846160 Ry

     iteration #  7     ecut=    70.00 Ry     beta= 0.70
     Davidson diagonalization with overlap
     ethr =  5.29E-05,  avg # of iterations =  3.3

     total cpu time spent up to now is        6.0 secs

     total energy              =     -26.14435207 Ry
     estimated scf accuracy    <       0.00132934 Ry

     iteration #  8     ecut=    70.00 Ry     beta= 0.70
     Davidson diagonalization with overlap
     c_bands:  1 eigenvalues not converged
     ethr =  8.31E-06,  avg # of iterations =  8.7

     total cpu time spent up to now is        6.8 secs

     total energy              =     -26.14507063 Ry
     estimated scf accuracy    <       0.00058627 Ry

     iteration #  9     ecut=    70.00 Ry     beta= 0.70
     Davidson diagonalization with overlap
     ethr =  3.66E-06,  avg # of iterations =  4.2

     negative rho (up, down):  2.072E-05 0.000E+00

     total cpu time spent up to now is        7.3 secs

     total energy              =     -26.14508140 Ry
     estimated scf accuracy    <       0.00038503 Ry

     iteration # 10     ecut=    70.00 Ry     beta= 0.70
     Davidson diagonalization with overlap
     ethr =  2.41E-06,  avg # of iterations =  5.0

     negative rho (up, down):  7.868E-05 0.000E+00

     total cpu time spent up to now is        7.9 secs

     total energy              =     -26.14506284 Ry
     estimated scf accuracy    <       0.00010072 Ry

     iteration # 11     ecut=    70.00 Ry     beta= 0.70
     Davidson diagonalization with overlap
     ethr =  6.30E-07,  avg # of iterations =  5.1

     negative rho (up, down):  1.186E-04 0.000E+00

     total cpu time spent up to now is        8.4 secs

     total energy              =     -26.14512738 Ry
     estimated scf accuracy    <       0.00000465 Ry

     iteration # 12     ecut=    70.00 Ry     beta= 0.70
     Davidson diagonalization with overlap
     ethr =  2.91E-08,  avg # of iterations =  7.6

     negative rho (up, down):  1.188E-04 0.000E+00

     total cpu time spent up to now is        9.3 secs

     total energy              =     -26.14513858 Ry
     estimated scf accuracy    <       0.00001121 Ry

     iteration # 13     ecut=    70.00 Ry     beta= 0.70
     Davidson diagonalization with overlap
     ethr =  2.91E-08,  avg # of iterations =  1.8

     negative rho (up, down):  1.258E-04 0.000E+00

     total cpu time spent up to now is        9.7 secs

     total energy              =     -26.14513235 Ry
     estimated scf accuracy    <       0.00001111 Ry

     iteration # 14     ecut=    70.00 Ry     beta= 0.70
     Davidson diagonalization with overlap
     ethr =  2.91E-08,  avg # of iterations =  4.9

     negative rho (up, down):  1.272E-04 0.000E+00

     total cpu time spent up to now is       10.2 secs

     total energy              =     -26.14513512 Ry
     estimated scf accuracy    <       0.00000026 Ry

     iteration # 15     ecut=    70.00 Ry     beta= 0.70
     Davidson diagonalization with overlap
     ethr =  1.63E-09,  avg # of iterations =  6.5

     negative rho (up, down):  1.256E-04 0.000E+00

     total cpu time spent up to now is       10.9 secs

     total energy              =     -26.14513535 Ry
     estimated scf accuracy    <       0.00000088 Ry

     iteration # 16     ecut=    70.00 Ry     beta= 0.70
     Davidson diagonalization with overlap
     ethr =  1.63E-09,  avg # of iterations =  1.7

     negative rho (up, down):  1.251E-04 0.000E+00

     total cpu time spent up to now is       11.3 secs

     total energy              =     -26.14513521 Ry
     estimated scf accuracy    <       0.00000030 Ry

     iteration # 17     ecut=    70.00 Ry     beta= 0.70
     Davidson diagonalization with overlap
     ethr =  1.63E-09,  avg # of iterations =  4.8

     negative rho (up, down):  1.252E-04 0.000E+00

     total cpu time spent up to now is       11.8 secs

     total energy              =     -26.14513533 Ry
     estimated scf accuracy    <       0.00000002 Ry

     iteration # 18     ecut=    70.00 Ry     beta= 0.70
     Davidson diagonalization with overlap
     ethr =  9.98E-11,  avg # of iterations =  5.6

     negative rho (up, down):  1.254E-04 0.000E+00

     total cpu time spent up to now is       12.5 secs

     total energy              =     -26.14513534 Ry
     estimated scf accuracy    <       0.00000003 Ry

     iteration # 19     ecut=    70.00 Ry     beta= 0.70
     Davidson diagonalization with overlap
     ethr =  9.98E-11,  avg # of iterations =  2.0

     negative rho (up, down):  1.256E-04 0.000E+00

     total cpu time spent up to now is       12.9 secs

     End of self-consistent calculation

          k = 0.0000 0.0000 0.0000 (  5283 PWs)   bands (ev):

   -24.5041 -23.6696 -23.6696 -16.2592 -10.9776 -10.9776  -5.1530   2.7126
     3.4721   3.6578   4.8769   5.7755

          k = 0.0000 0.0962 0.0000 (  5259 PWs)   bands (ev):

   -24.6178 -23.8700 -23.7607 -16.0812 -10.5543 -10.4027  -4.9934   1.9241
     3.6941   3.8832   5.0970   5.6213

          k = 0.0000 0.1925 0.0000 (  5241 PWs)   bands (ev):

   -25.1231 -24.3706 -23.7300 -15.5520  -9.4186  -8.8476  -4.5193   0.0537
     4.3571   4.5578   5.1589   5.7562

          k = 0.0000 0.2887 0.0000 (  5255 PWs)   bands (ev):

   -25.8570 -24.9691 -23.4972 -14.6904  -7.8808  -6.6510  -3.7378  -2.2315
     4.3867   5.4487   5.6816   6.8471

          k = 0.0000 0.3849 0.0000 (  5259 PWs)   bands (ev):

   -26.5203 -25.4958 -23.2141 -13.5447  -6.3108  -4.5465  -4.1930  -2.5903
     3.3366   6.9163   7.2326   8.6403

          k = 0.0000 0.4811 0.0000 (  5274 PWs)   bands (ev):

   -26.9626 -25.8466 -22.9915 -12.2718  -6.5733  -5.1116  -2.3120  -0.5807
     2.1855   5.4448   8.1225   8.3978

          k = 0.0000-0.5774 0.0000 (  5280 PWs)   bands (ev):

   -27.1164 -25.9688 -22.9074 -11.5328  -7.5712  -4.6568  -1.5963   1.3445
     1.9724   2.9220   7.9459   8.8214

          k = 0.0833 0.1443 0.0000 (  5259 PWs)   bands (ev):

   -24.9933 -24.0178 -23.9226 -15.7275  -9.7545  -9.3626  -4.6767   0.6288
     4.1347   4.3334   5.3146   5.5363

          k = 0.0833 0.2406 0.0000 (  5244 PWs)   bands (ev):

   -25.7153 -24.4764 -23.7577 -15.0309  -8.3754  -7.5440  -4.0509  -1.3551
     4.7065   4.9986   5.2322   6.4108

          k = 0.0833 0.3368 0.0000 (  5259 PWs)   bands (ev):

   -26.4502 -24.9982 -23.4736 -14.0207  -6.7762  -5.2531  -3.5688  -3.1098
     3.8091   6.1486   6.5698   7.5477

          k = 0.0833 0.4330 0.0000 (  5262 PWs)   bands (ev):

   -27.0121 -25.4160 -23.2052 -12.7781  -5.7110  -5.3443  -3.0026  -1.6388
     2.6928   6.2602   6.8191   8.3649

          k = 0.0833 0.5292 0.0000 (  5288 PWs)   bands (ev):

   -27.3116 -25.6435 -23.0435 -11.6164  -7.3496  -4.4802  -1.6856   0.7562
     1.7125   3.9403   5.8902   8.9079

          k = 0.1667 0.2887 0.0000 (  5266 PWs)   bands (ev):

   -26.4836 -24.5577 -23.7664 -14.1819  -6.8464  -5.7292  -3.2756  -3.1548
     3.9884   5.7847   6.3454   7.0435

          k = 0.1667 0.3849 0.0000 (  5269 PWs)   bands (ev):

   -27.1410 -24.8097 -23.5895 -13.0491  -5.2514  -5.0856  -3.6516  -2.1373
     3.0338   4.9939   7.7322   7.8401

          k = 0.1667 0.4811 0.0000 (  5268 PWs)   bands (ev):

   -27.5708 -25.0371 -23.4020 -11.7666  -6.8971  -4.0330  -1.9167  -0.2921
     1.9577   4.1307   5.1365   8.2313

          k = 0.1667 0.5774 0.0000 (  5260 PWs)   bands (ev):

   -27.7194 -25.1231 -23.3269 -10.9777  -7.8716  -3.5700  -1.1546   1.2553
     1.8242   2.9085   3.8318   7.8934

          k = 0.2500 0.4330 0.0000 (  5254 PWs)   bands (ev):

   -27.6706 -24.6481 -23.6968 -11.8349  -6.6618  -3.7112  -2.1205  -0.7196
     2.0986   3.4657   5.7036   7.8300

          k = 0.2500 0.5292 0.0000 (  5276 PWs)   bands (ev):

   -27.9522 -24.5847 -23.7300 -10.5846  -8.0941  -2.7211  -0.8805   1.0865
     1.1706   2.6524   3.5766   6.8930

          k = 0.3333 0.5774 0.0000 (  5268 PWs)   bands (ev):

   -28.0850 -24.1356 -24.1356  -9.3310  -9.3310  -2.0934   0.1616   0.1616
     2.1272   2.3378   2.3378   6.2156

     the Fermi energy is     1.3452 ev

!    total energy              =     -26.14513534 Ry
     estimated scf accuracy    <          5.1E-09 Ry
     smearing contrib. (-TS)   =       0.00007745 Ry
     internal energy E=F+TS    =     -26.14521279 Ry

     The total energy is F=E-TS. E is the sum of the following terms:
     one-electron contribution =    -631.39360609 Ry
     hartree contribution      =     320.10679350 Ry
     xc contribution           =     -21.23585925 Ry
     ewald contribution        =     306.37745907 Ry

     convergence has been achieved in  19 iterations

     negative rho (up, down):  1.256E-04 0.000E+00

     Forces acting on atoms (cartesian axes, Ry/au):

     atom    1 type  1   force =     0.00000000   -0.00000000  -22.56987998
     atom    2 type  1   force =     0.00000000   -0.00000000  -22.56987998
     atom    3 type  1   force =     0.00000000   -0.00000000   22.56987998
     atom    4 type  1   force =    -0.00000000   -0.00000000   22.56987998

     Total force =    45.139760     Total SCF correction =     0.000123


     Computing stress (Cartesian axis) and pressure


     negative rho (up, down):  1.256E-04 0.000E+00
          total   stress  (Ry/bohr**3)                   (kbar)     P=     4876.84
   0.00968436   0.00000000  -0.00000000         1424.62        0.00       -0.00
   0.00000000   0.00968436   0.00000000            0.00     1424.62        0.00
   0.00000000   0.00000000   0.08008748            0.00        0.00    11781.27


     Writing all to output data dir /run/media/rfa/SATA/Skripsi/DFT/dft-graphene/tmp/gr-aa-2L.save/ :
     XML data file, charge density, pseudopotentials, collected wavefunctions

     init_run     :      0.54s CPU      0.60s WALL (       1 calls)
     electrons    :     21.92s CPU     12.29s WALL (       1 calls)
     forces       :      0.11s CPU      0.06s WALL (       1 calls)
     stress       :      0.30s CPU      0.19s WALL (       1 calls)

     Called by init_run:
     wfcinit      :      0.28s CPU      0.16s WALL (       1 calls)
     potinit      :      0.01s CPU      0.01s WALL (       1 calls)
     hinit0       :      0.21s CPU      0.39s WALL (       1 calls)

     Called by electrons:
     c_bands      :     19.02s CPU     10.48s WALL (      19 calls)
     sum_band     :      2.32s CPU      1.29s WALL (      19 calls)
     v_of_rho     :      0.18s CPU      0.19s WALL (      20 calls)
     newd         :      0.21s CPU      0.21s WALL (      20 calls)
     mix_rho      :      0.16s CPU      0.10s WALL (      19 calls)

     Called by c_bands:
     init_us_2    :      0.49s CPU      0.26s WALL (     779 calls)
     cegterg      :     18.24s CPU     10.03s WALL (     361 calls)

     Called by *egterg:
     cdiaghg      :      1.17s CPU      0.62s WALL (    2467 calls)
     h_psi        :     13.35s CPU      7.44s WALL (    2486 calls)
     s_psi        :      0.46s CPU      0.24s WALL (    2486 calls)
     g_psi        :      0.15s CPU      0.08s WALL (    2106 calls)

     Called by h_psi:
     h_psi:calbec :      1.79s CPU      0.98s WALL (    2486 calls)
     vloc_psi     :     10.42s CPU      5.83s WALL (    2486 calls)
     add_vuspsi   :      0.91s CPU      0.50s WALL (    2486 calls)

     General routines
     calbec       :      2.11s CPU      1.14s WALL (    3170 calls)
     fft          :      0.27s CPU      0.44s WALL (     245 calls)
     ffts         :      0.01s CPU      0.01s WALL (      19 calls)
     fftw         :      9.36s CPU      5.29s WALL (   36428 calls)

     Parallel routines

     PWSCF        :     22.96s CPU     13.52s WALL


   This run was terminated on:   4: 7:44  22Apr2025            

=------------------------------------------------------------------------------=
   JOB DONE.
=------------------------------------------------------------------------------=
