
     Program PWSCF v.7.4.1 starts on 22Apr2025 at  4: 5:59 

     This program is part of the open-source Quantum ESPRESSO suite
     for quantum simulation of materials; please cite
         "P. Giannozzi et al., J. Phys.:Condens. Matter 21 395502 (2009);
         "P. Giannozzi et al., J. Phys.:Condens. Matter 29 465901 (2017);
         "P. Giannozzi et al., J. Chem. Phys. 152 154105 (2020);
          URL http://www.quantum-espresso.org", 
     in publications or presentations arising from this work. More details at
     http://www.quantum-espresso.org/quote

     Parallel version (MPI), running on     7 processors

     MPI processes distributed on     1 nodes
     12186 MiB available memory on the printing compute node when the environment starts

     Waiting for input...
     Reading input from standard input

     Current dimensions of program PWSCF are:
     Max number of different atomic species (ntypx) = 10
     Max number of k-points (npk) =  40000
     Max angular momentum in pseudopotentials (lmaxx) =  4

     R & G space division:  proc/nbgrp/npool/nimage =       7
     Subspace diagonalization in iterative solution of the eigenvalue problem:
     a serial algorithm will be used


     Parallelization info
     --------------------
     sticks:   dense  smooth     PW     G-vecs:    dense   smooth      PW
     Min          21      21      7                 1209     1209     253
     Max          22      22      8                 1218     1218     266
     Sum         151     151     55                 8507     8507    1811

     Using Slab Decomposition



     bravais-lattice index     =            4
     lattice parameter (alat)  =       4.6561  a.u.
     unit-cell volume          =     532.1899 (a.u.)^3
     number of atoms/cell      =            4
     number of atomic types    =            1
     number of electrons       =        16.00
     number of Kohn-Sham states=           12
     kinetic-energy cutoff     =      24.0000  Ry
     charge density cutoff     =      96.0000  Ry
     scf convergence threshold =      1.0E-08
     mixing beta               =       0.7000
     number of iterations used =            8  plain     mixing
     Exchange-correlation= PBE
                           (   1   4   3   4   0   0   0)

     celldm(1)=   4.656107  celldm(2)=   0.000000  celldm(3)=   6.087896
     celldm(4)=   0.000000  celldm(5)=   0.000000  celldm(6)=   0.000000

     crystal axes: (cart. coord. in units of alat)
               a(1) = (   1.000000   0.000000   0.000000 )  
               a(2) = (  -0.500000   0.866025   0.000000 )  
               a(3) = (   0.000000   0.000000   6.087896 )  

     reciprocal axes: (cart. coord. in units 2 pi/alat)
               b(1) = (  1.000000  0.577350 -0.000000 )  
               b(2) = (  0.000000  1.154701  0.000000 )  
               b(3) = (  0.000000 -0.000000  0.164260 )  


     PseudoPot. # 1 for C  read from file:
     /run/media/rfa/SATA/Skripsi/DFT/dft-graphene/pseudo/C.pbe-n-rrkjus_psl.0.1.UPF
     MD5 check sum: 96a6a315177d77e6c95bf6fd3870f9e3
     Pseudo is Ultrasoft + core correction, Zval =  4.0
     Generated using &quot;atomic&quot; code by A. Dal Corso  v.6.3MaX
     Using radial grid of 1073 points,  4 beta functions with: 
                l(1) =   0
                l(2) =   0
                l(3) =   1
                l(4) =   1
     Q(r) pseudized with 0 coefficients 


     atomic species   valence    mass     pseudopotential
     C                 4.00    12.01070     C ( 1.00)

     12 Sym. Ops. (no inversion) found



   Cartesian axes

     site n.     atom                  positions (alat units)
         1        C      tau(   1) = (   0.0000000   0.5773503   3.0439478  )
         2        C      tau(   2) = (   0.5000000   0.2886751   3.0439478  )
         3        C      tau(   3) = (   0.0000000   0.5773503   3.2468777  )
         4        C      tau(   4) = (   0.5000000   0.2886751   3.2468777  )

     number of k points=    19  Marzari-Vanderbilt smearing, width (Ry)=  0.0200
                       cart. coord. in units 2pi/alat
        k(    1) = (   0.0000000   0.0000000   0.0000000), wk =   0.0138889
        k(    2) = (   0.0000000   0.0962250   0.0000000), wk =   0.0833333
        k(    3) = (   0.0000000   0.1924501   0.0000000), wk =   0.0833333
        k(    4) = (   0.0000000   0.2886751   0.0000000), wk =   0.0833333
        k(    5) = (   0.0000000   0.3849002   0.0000000), wk =   0.0833333
        k(    6) = (   0.0000000   0.4811252   0.0000000), wk =   0.0833333
        k(    7) = (   0.0000000  -0.5773503   0.0000000), wk =   0.0416667
        k(    8) = (   0.0833333   0.1443376   0.0000000), wk =   0.0833333
        k(    9) = (   0.0833333   0.2405626   0.0000000), wk =   0.1666667
        k(   10) = (   0.0833333   0.3367877   0.0000000), wk =   0.1666667
        k(   11) = (   0.0833333   0.4330127   0.0000000), wk =   0.1666667
        k(   12) = (   0.0833333   0.5292377   0.0000000), wk =   0.1666667
        k(   13) = (   0.1666667   0.2886751   0.0000000), wk =   0.0833333
        k(   14) = (   0.1666667   0.3849002   0.0000000), wk =   0.1666667
        k(   15) = (   0.1666667   0.4811252   0.0000000), wk =   0.1666667
        k(   16) = (   0.1666667   0.5773503   0.0000000), wk =   0.0833333
        k(   17) = (   0.2500000   0.4330127   0.0000000), wk =   0.0833333
        k(   18) = (   0.2500000   0.5292377   0.0000000), wk =   0.1666667
        k(   19) = (   0.3333333   0.5773503   0.0000000), wk =   0.0277778

     Dense  grid:     8507 G-vectors     FFT dimensions: (  15,  15,  90)

     Estimated max dynamical RAM per process >       2.55 MB

     Estimated total dynamical RAM >      17.84 MB

     Check: negative core charge=   -0.000137

     Initial potential from superposition of free atoms

     starting charge      15.9998, renormalised to      16.0000

     negative rho (up, down):  1.007E-02 0.000E+00
     Starting wfcs are   16 randomized atomic wfcs

     total cpu time spent up to now is        0.3 secs

     per-process dynamical memory:     8.3 Mb

     Self-consistent Calculation

     iteration #  1     ecut=    24.00 Ry     beta= 0.70
     Davidson diagonalization with overlap
     ethr =  1.00E-02,  avg # of iterations =  5.5

     negative rho (up, down):  1.466E-01 0.000E+00

     total cpu time spent up to now is        0.5 secs

     total energy              =     -22.00983509 Ry
     estimated scf accuracy    <       7.85762876 Ry

     iteration #  2     ecut=    24.00 Ry     beta= 0.70
     Davidson diagonalization with overlap
     ethr =  1.00E-02,  avg # of iterations =  8.7

     negative rho (up, down):  2.810E-03 0.000E+00

     total cpu time spent up to now is        0.6 secs

     total energy              =     -17.39233583 Ry
     estimated scf accuracy    <      21.23048101 Ry

     iteration #  3     ecut=    24.00 Ry     beta= 0.70
     Davidson diagonalization with overlap
     c_bands:  1 eigenvalues not converged
     c_bands:  1 eigenvalues not converged
     ethr =  1.00E-02,  avg # of iterations =  9.1

     negative rho (up, down):  3.247E-03 0.000E+00

     total cpu time spent up to now is        0.8 secs

     total energy              =     -24.89049568 Ry
     estimated scf accuracy    <       0.95329222 Ry

     iteration #  4     ecut=    24.00 Ry     beta= 0.70
     Davidson diagonalization with overlap
     ethr =  5.96E-03,  avg # of iterations =  2.5

     negative rho (up, down):  8.877E-03 0.000E+00

     total cpu time spent up to now is        0.9 secs

     total energy              =     -24.66705879 Ry
     estimated scf accuracy    <       0.52392174 Ry

     iteration #  5     ecut=    24.00 Ry     beta= 0.70
     Davidson diagonalization with overlap
     ethr =  3.27E-03,  avg # of iterations =  2.2

     negative rho (up, down):  1.141E-02 0.000E+00

     total cpu time spent up to now is        0.9 secs

     total energy              =     -24.65481697 Ry
     estimated scf accuracy    <       0.18079464 Ry

     iteration #  6     ecut=    24.00 Ry     beta= 0.70
     Davidson diagonalization with overlap
     ethr =  1.13E-03,  avg # of iterations =  2.1

     negative rho (up, down):  4.355E-03 0.000E+00

     total cpu time spent up to now is        1.0 secs

     total energy              =     -24.79632236 Ry
     estimated scf accuracy    <       0.14059806 Ry

     iteration #  7     ecut=    24.00 Ry     beta= 0.70
     Davidson diagonalization with overlap
     ethr =  8.79E-04,  avg # of iterations =  1.4

     negative rho (up, down):  4.322E-02 0.000E+00

     total cpu time spent up to now is        1.1 secs

     total energy              =     -24.54597940 Ry
     estimated scf accuracy    <       0.30281156 Ry

     iteration #  8     ecut=    24.00 Ry     beta= 0.70
     Davidson diagonalization with overlap
     ethr =  8.79E-04,  avg # of iterations =  4.7

     negative rho (up, down):  4.270E-02 0.000E+00

     total cpu time spent up to now is        1.2 secs

     total energy              =     -24.56278684 Ry
     estimated scf accuracy    <       0.01079757 Ry

     iteration #  9     ecut=    24.00 Ry     beta= 0.70
     Davidson diagonalization with overlap
     ethr =  6.75E-05,  avg # of iterations =  5.7

     negative rho (up, down):  4.163E-02 0.000E+00

     total cpu time spent up to now is        1.3 secs

     total energy              =     -24.56484089 Ry
     estimated scf accuracy    <       0.01135966 Ry

     iteration # 10     ecut=    24.00 Ry     beta= 0.70
     Davidson diagonalization with overlap
     ethr =  6.75E-05,  avg # of iterations =  1.0

     negative rho (up, down):  6.734E-02 0.000E+00

     total cpu time spent up to now is        1.4 secs

     total energy              =     -24.55372619 Ry
     estimated scf accuracy    <       0.01339626 Ry

     iteration # 11     ecut=    24.00 Ry     beta= 0.70
     Davidson diagonalization with overlap
     ethr =  6.75E-05,  avg # of iterations =  6.1

     negative rho (up, down):  7.200E-02 0.000E+00

     total cpu time spent up to now is        1.5 secs

     total energy              =     -24.55456666 Ry
     estimated scf accuracy    <       0.00117672 Ry

     iteration # 12     ecut=    24.00 Ry     beta= 0.70
     Davidson diagonalization with overlap
     c_bands:  1 eigenvalues not converged
     ethr =  7.35E-06,  avg # of iterations =  6.3

     negative rho (up, down):  7.199E-02 0.000E+00

     total cpu time spent up to now is        1.6 secs

     total energy              =     -24.55459448 Ry
     estimated scf accuracy    <       0.00141747 Ry

     iteration # 13     ecut=    24.00 Ry     beta= 0.70
     Davidson diagonalization with overlap
     ethr =  7.35E-06,  avg # of iterations =  1.0

     negative rho (up, down):  7.208E-02 0.000E+00

     total cpu time spent up to now is        1.7 secs

     total energy              =     -24.55459960 Ry
     estimated scf accuracy    <       0.00142175 Ry

     iteration # 14     ecut=    24.00 Ry     beta= 0.70
     Davidson diagonalization with overlap
     ethr =  7.35E-06,  avg # of iterations =  1.0

     negative rho (up, down):  7.189E-02 0.000E+00

     total cpu time spent up to now is        1.7 secs

     total energy              =     -24.55454982 Ry
     estimated scf accuracy    <       0.00145751 Ry

     iteration # 15     ecut=    24.00 Ry     beta= 0.70
     Davidson diagonalization with overlap
     ethr =  7.35E-06,  avg # of iterations =  1.0

     negative rho (up, down):  6.927E-02 0.000E+00

     total cpu time spent up to now is        1.8 secs

     total energy              =     -24.55398979 Ry
     estimated scf accuracy    <       0.00133326 Ry

     iteration # 16     ecut=    24.00 Ry     beta= 0.70
     Davidson diagonalization with overlap
     ethr =  7.35E-06,  avg # of iterations =  3.1

     negative rho (up, down):  6.972E-02 0.000E+00

     total cpu time spent up to now is        1.9 secs

     total energy              =     -24.55407276 Ry
     estimated scf accuracy    <       0.00019593 Ry

     iteration # 17     ecut=    24.00 Ry     beta= 0.70
     Davidson diagonalization with overlap
     ethr =  1.22E-06,  avg # of iterations =  2.2

     negative rho (up, down):  6.974E-02 0.000E+00

     total cpu time spent up to now is        2.0 secs

     total energy              =     -24.55404108 Ry
     estimated scf accuracy    <       0.00009016 Ry

     iteration # 18     ecut=    24.00 Ry     beta= 0.70
     Davidson diagonalization with overlap
     ethr =  5.63E-07,  avg # of iterations =  3.4

     negative rho (up, down):  6.931E-02 0.000E+00

     total cpu time spent up to now is        2.1 secs

     total energy              =     -24.55405066 Ry
     estimated scf accuracy    <       0.00023190 Ry

     iteration # 19     ecut=    24.00 Ry     beta= 0.70
     Davidson diagonalization with overlap
     ethr =  5.63E-07,  avg # of iterations =  1.0

     negative rho (up, down):  7.135E-02 0.000E+00

     total cpu time spent up to now is        2.1 secs

     total energy              =     -24.55405659 Ry
     estimated scf accuracy    <       0.00031751 Ry

     iteration # 20     ecut=    24.00 Ry     beta= 0.70
     Davidson diagonalization with overlap
     ethr =  5.63E-07,  avg # of iterations =  2.0

     negative rho (up, down):  7.149E-02 0.000E+00

     total cpu time spent up to now is        2.2 secs

     total energy              =     -24.55409361 Ry
     estimated scf accuracy    <       0.00001649 Ry

     iteration # 21     ecut=    24.00 Ry     beta= 0.70
     Davidson diagonalization with overlap
     ethr =  1.03E-07,  avg # of iterations =  2.0

     negative rho (up, down):  7.163E-02 0.000E+00

     total cpu time spent up to now is        2.3 secs

     total energy              =     -24.55407846 Ry
     estimated scf accuracy    <       0.00003389 Ry

     iteration # 22     ecut=    24.00 Ry     beta= 0.70
     Davidson diagonalization with overlap
     ethr =  1.03E-07,  avg # of iterations =  2.0

     negative rho (up, down):  7.165E-02 0.000E+00

     total cpu time spent up to now is        2.4 secs

     total energy              =     -24.55408097 Ry
     estimated scf accuracy    <       0.00000275 Ry

     iteration # 23     ecut=    24.00 Ry     beta= 0.70
     Davidson diagonalization with overlap
     ethr =  1.72E-08,  avg # of iterations =  2.0

     negative rho (up, down):  7.164E-02 0.000E+00

     total cpu time spent up to now is        2.5 secs

     total energy              =     -24.55408143 Ry
     estimated scf accuracy    <       0.00000043 Ry

     iteration # 24     ecut=    24.00 Ry     beta= 0.70
     Davidson diagonalization with overlap
     ethr =  2.71E-09,  avg # of iterations =  2.0

     negative rho (up, down):  7.164E-02 0.000E+00

     total cpu time spent up to now is        2.5 secs

     total energy              =     -24.55408160 Ry
     estimated scf accuracy    <       0.00000002 Ry

     iteration # 25     ecut=    24.00 Ry     beta= 0.70
     Davidson diagonalization with overlap
     ethr =  1.08E-10,  avg # of iterations =  3.7

     negative rho (up, down):  7.164E-02 0.000E+00

     total cpu time spent up to now is        2.6 secs

     End of self-consistent calculation

          k = 0.0000 0.0000 0.0000 (  1077 PWs)   bands (ev):

   -26.2680 -25.7744 -25.7744 -14.4565 -12.6782 -12.6782  -6.7700   2.0752
     2.3655   3.4835   3.6331   4.6654

          k = 0.0000 0.0962 0.0000 (  1089 PWs)   bands (ev):

   -26.4069 -25.9885 -25.8516 -14.3441 -12.2669 -12.0984  -6.6396   2.3022
     2.5906   3.3694   3.7037   4.8857

          k = 0.0000 0.1925 0.0000 (  1078 PWs)   bands (ev):

   -26.9577 -26.4682 -25.7054 -13.7915 -11.1242 -10.2892  -6.2100   2.9294
     2.9854   3.2677   3.8167   4.3671

          k = 0.0000 0.2887 0.0000 (  1064 PWs)   bands (ev):

   -27.6557 -27.0262 -25.4080 -12.8060  -9.3169  -8.0093  -5.5082   0.8031
     2.2097   4.1185   4.4115   5.4658

          k = 0.0000 0.3849 0.0000 (  1044 PWs)   bands (ev):

   -28.2458 -27.5143 -25.0544 -11.3876  -7.6022  -5.4826  -4.4127  -1.9697
     1.3527   5.6992   6.0035   6.8221

          k = 0.0000 0.4811 0.0000 (  1052 PWs)   bands (ev):

   -28.7769 -27.8591 -24.7585  -9.8824  -6.5638  -4.3486  -3.8362  -2.3533
     0.3174   4.0064   6.7973   7.6125

          k = 0.0000-0.5774 0.0000 (  1062 PWs)   bands (ev):

   -28.9374 -27.9847 -24.6376  -9.1135  -6.1814  -5.5943  -3.2665  -0.7075
     0.5397   1.4452   6.5910   7.9771

          k = 0.0833 0.1443 0.0000 (  1077 PWs)   bands (ev):

   -26.8539 -26.1001 -25.9134 -13.9182 -11.4219 -10.8788  -6.3448   2.7568
     3.0463   3.0987   4.1467   4.8018

          k = 0.0833 0.2406 0.0000 (  1065 PWs)   bands (ev):

   -27.5674 -26.5093 -25.6892 -13.1974  -9.9816  -8.9051  -5.7728   2.1074
     2.5917   3.6651   3.9522   5.0282

          k = 0.0833 0.3368 0.0000 (  1061 PWs)   bands (ev):

   -28.2682 -26.9914 -25.3429 -12.0593  -8.2573  -6.6189  -4.9159  -0.7348
     1.6791   5.0230   5.2921   6.3297

          k = 0.0833 0.4330 0.0000 (  1047 PWs)   bands (ev):

   -28.8580 -27.3363 -25.0124 -10.4706  -6.6220  -4.3680  -3.4827  -3.2121
     0.7293   5.3079   5.6516   6.7992

          k = 0.0833 0.5292 0.0000 (  1043 PWs)   bands (ev):

   -29.1795 -27.5678 -24.7437  -9.1121  -5.8786  -5.1595  -3.2692  -0.9842
     0.0554   2.5734   5.2655   7.7012

          k = 0.1667 0.2887 0.0000 (  1057 PWs)   bands (ev):

   -28.3250 -26.5524 -25.6352 -12.2021  -8.4669  -7.1109  -5.0039  -0.0017
     1.9162   4.7975   5.0179   5.8076

          k = 0.1667 0.3849 0.0000 (  1060 PWs)   bands (ev):

   -29.0382 -26.7364 -25.4359 -10.8005  -6.7591  -5.0947  -4.0325  -2.1786
     1.0185   4.2235   6.1440   6.3547

          k = 0.1667 0.4811 0.0000 (  1048 PWs)   bands (ev):

   -29.4821 -26.9064 -25.1756  -9.3479  -5.3817  -4.2422  -3.4353  -2.1171
     0.0980   3.3768   3.6559   7.0438

          k = 0.1667 0.5774 0.0000 (  1040 PWs)   bands (ev):

   -29.6402 -26.9283 -25.0582  -8.3551  -5.4556  -4.6937  -2.8020  -0.6313
     0.4188   1.3502   3.1003   6.6808

          k = 0.2500 0.4330 0.0000 (  1052 PWs)   bands (ev):

   -29.5994 -26.4901 -25.4972  -9.4757  -4.9601  -3.7273  -3.5981  -2.7254
     0.2229   2.4913   4.1767   6.6731

          k = 0.2500 0.5292 0.0000 (  1041 PWs)   bands (ev):

   -29.8863 -26.3508 -25.4800  -8.0127  -5.3374  -3.6785  -2.5009  -0.7883
    -0.5276   1.6174   1.9873   5.6661

          k = 0.3333 0.5774 0.0000 (  1050 PWs)   bands (ev):

   -30.0302 -25.9156 -25.9156  -6.6401  -6.6401  -3.0197  -1.5615  -1.5615
     0.4731   0.4731   0.9540   4.9811

     the Fermi energy is     0.2421 ev

!    total energy              =     -24.55408169 Ry
     estimated scf accuracy    <          4.9E-10 Ry
     smearing contrib. (-TS)   =      -0.00086501 Ry
     internal energy E=F+TS    =     -24.55321668 Ry

     The total energy is F=E-TS. E is the sum of the following terms:
     one-electron contribution =    -627.58535336 Ry
     hartree contribution      =     317.59672130 Ry
     xc contribution           =     -20.94204368 Ry
     ewald contribution        =     306.37745906 Ry

     convergence has been achieved in  25 iterations

     negative rho (up, down):  7.164E-02 0.000E+00

     Forces acting on atoms (cartesian axes, Ry/au):

     atom    1 type  1   force =    -0.00000000    0.00000000  -25.82387681
     atom    2 type  1   force =    -0.00000000   -0.00000000  -25.82387681
     atom    3 type  1   force =     0.00000000    0.00000000   25.82387681
     atom    4 type  1   force =    -0.00000000   -0.00000000   25.82387681

     Total force =    51.647754     Total SCF correction =     0.000070


     Computing stress (Cartesian axis) and pressure


     negative rho (up, down):  7.164E-02 0.000E+00
          total   stress  (Ry/bohr**3)                   (kbar)     P=     4307.99
   0.00237394  -0.00000000  -0.00000000          349.22       -0.00       -0.00
  -0.00000000   0.00237394   0.00000000           -0.00      349.22        0.00
  -0.00000000   0.00000000   0.08310740           -0.00        0.00    12225.52


     Writing all to output data dir /run/media/rfa/SATA/Skripsi/DFT/dft-graphene/tmp/gr-aa-2L.save/ :
     XML data file, charge density, pseudopotentials, collected wavefunctions

     init_run     :      0.19s CPU      0.26s WALL (       1 calls)
     electrons    :      3.83s CPU      2.33s WALL (       1 calls)
     forces       :      0.01s CPU      0.01s WALL (       1 calls)
     stress       :      0.03s CPU      0.03s WALL (       1 calls)

     Called by init_run:
     wfcinit      :      0.06s CPU      0.04s WALL (       1 calls)
     potinit      :      0.00s CPU      0.00s WALL (       1 calls)
     hinit0       :      0.12s CPU      0.21s WALL (       1 calls)

     Called by electrons:
     c_bands      :      3.36s CPU      1.94s WALL (      25 calls)
     sum_band     :      0.39s CPU      0.29s WALL (      25 calls)
     v_of_rho     :      0.03s CPU      0.04s WALL (      26 calls)
     newd         :      0.02s CPU      0.03s WALL (      26 calls)
     mix_rho      :      0.02s CPU      0.02s WALL (      25 calls)

     Called by c_bands:
     init_us_2    :      0.08s CPU      0.05s WALL (    1007 calls)
     cegterg      :      3.09s CPU      1.77s WALL (     475 calls)

     Called by *egterg:
     cdiaghg      :      0.66s CPU      0.36s WALL (    2025 calls)
     h_psi        :      2.02s CPU      1.18s WALL (    2044 calls)
     s_psi        :      0.06s CPU      0.03s WALL (    2044 calls)
     g_psi        :      0.03s CPU      0.01s WALL (    1550 calls)

     Called by h_psi:
     h_psi:calbec :      0.18s CPU      0.11s WALL (    2044 calls)
     vloc_psi     :      1.73s CPU      1.01s WALL (    2044 calls)
     add_vuspsi   :      0.06s CPU      0.03s WALL (    2044 calls)

     General routines
     calbec       :      0.21s CPU      0.14s WALL (    2842 calls)
     fft          :      0.13s CPU      0.22s WALL (     311 calls)
     ffts         :      0.00s CPU      0.00s WALL (      25 calls)
     fftw         :      1.70s CPU      0.99s WALL (   35694 calls)

     Parallel routines

     PWSCF        :      4.13s CPU      2.78s WALL


   This run was terminated on:   4: 6: 2  22Apr2025            

=------------------------------------------------------------------------------=
   JOB DONE.
=------------------------------------------------------------------------------=
