
     Program PWSCF v.7.4.1 starts on 22Apr2025 at  4: 6:45 

     This program is part of the open-source Quantum ESPRESSO suite
     for quantum simulation of materials; please cite
         "P. Giannozzi et al., J. Phys.:Condens. Matter 21 395502 (2009);
         "P. Giannozzi et al., J. Phys.:Condens. Matter 29 465901 (2017);
         "P. Giannozzi et al., J. Chem. Phys. 152 154105 (2020);
          URL http://www.quantum-espresso.org", 
     in publications or presentations arising from this work. More details at
     http://www.quantum-espresso.org/quote

     Parallel version (MPI), running on     7 processors

     MPI processes distributed on     1 nodes
     12186 MiB available memory on the printing compute node when the environment starts

     Waiting for input...
     Reading input from standard input

     Current dimensions of program PWSCF are:
     Max number of different atomic species (ntypx) = 10
     Max number of k-points (npk) =  40000
     Max angular momentum in pseudopotentials (lmaxx) =  4

     R & G space division:  proc/nbgrp/npool/nimage =       7
     Subspace diagonalization in iterative solution of the eigenvalue problem:
     a serial algorithm will be used


     Parallelization info
     --------------------
     sticks:   dense  smooth     PW     G-vecs:    dense   smooth      PW
     Min          44      44     15                 4122     4122     733
     Max          45      45     16                 4159     4159     742
     Sum         313     313    109                29029    29029    5163

     Using Slab Decomposition



     bravais-lattice index     =            4
     lattice parameter (alat)  =       4.6561  a.u.
     unit-cell volume          =     532.1899 (a.u.)^3
     number of atoms/cell      =            4
     number of atomic types    =            1
     number of electrons       =        16.00
     number of Kohn-Sham states=           12
     kinetic-energy cutoff     =      55.0000  Ry
     charge density cutoff     =     220.0000  Ry
     scf convergence threshold =      1.0E-08
     mixing beta               =       0.7000
     number of iterations used =            8  plain     mixing
     Exchange-correlation= PBE
                           (   1   4   3   4   0   0   0)

     celldm(1)=   4.656107  celldm(2)=   0.000000  celldm(3)=   6.087896
     celldm(4)=   0.000000  celldm(5)=   0.000000  celldm(6)=   0.000000

     crystal axes: (cart. coord. in units of alat)
               a(1) = (   1.000000   0.000000   0.000000 )  
               a(2) = (  -0.500000   0.866025   0.000000 )  
               a(3) = (   0.000000   0.000000   6.087896 )  

     reciprocal axes: (cart. coord. in units 2 pi/alat)
               b(1) = (  1.000000  0.577350 -0.000000 )  
               b(2) = (  0.000000  1.154701  0.000000 )  
               b(3) = (  0.000000 -0.000000  0.164260 )  


     PseudoPot. # 1 for C  read from file:
     /run/media/rfa/SATA/Skripsi/DFT/dft-graphene/pseudo/C.pbe-n-rrkjus_psl.0.1.UPF
     MD5 check sum: 96a6a315177d77e6c95bf6fd3870f9e3
     Pseudo is Ultrasoft + core correction, Zval =  4.0
     Generated using &quot;atomic&quot; code by A. Dal Corso  v.6.3MaX
     Using radial grid of 1073 points,  4 beta functions with: 
                l(1) =   0
                l(2) =   0
                l(3) =   1
                l(4) =   1
     Q(r) pseudized with 0 coefficients 


     atomic species   valence    mass     pseudopotential
     C                 4.00    12.01070     C ( 1.00)

     12 Sym. Ops. (no inversion) found



   Cartesian axes

     site n.     atom                  positions (alat units)
         1        C      tau(   1) = (   0.0000000   0.5773503   3.0439478  )
         2        C      tau(   2) = (   0.5000000   0.2886751   3.0439478  )
         3        C      tau(   3) = (   0.0000000   0.5773503   3.2468777  )
         4        C      tau(   4) = (   0.5000000   0.2886751   3.2468777  )

     number of k points=    19  Marzari-Vanderbilt smearing, width (Ry)=  0.0200
                       cart. coord. in units 2pi/alat
        k(    1) = (   0.0000000   0.0000000   0.0000000), wk =   0.0138889
        k(    2) = (   0.0000000   0.0962250   0.0000000), wk =   0.0833333
        k(    3) = (   0.0000000   0.1924501   0.0000000), wk =   0.0833333
        k(    4) = (   0.0000000   0.2886751   0.0000000), wk =   0.0833333
        k(    5) = (   0.0000000   0.3849002   0.0000000), wk =   0.0833333
        k(    6) = (   0.0000000   0.4811252   0.0000000), wk =   0.0833333
        k(    7) = (   0.0000000  -0.5773503   0.0000000), wk =   0.0416667
        k(    8) = (   0.0833333   0.1443376   0.0000000), wk =   0.0833333
        k(    9) = (   0.0833333   0.2405626   0.0000000), wk =   0.1666667
        k(   10) = (   0.0833333   0.3367877   0.0000000), wk =   0.1666667
        k(   11) = (   0.0833333   0.4330127   0.0000000), wk =   0.1666667
        k(   12) = (   0.0833333   0.5292377   0.0000000), wk =   0.1666667
        k(   13) = (   0.1666667   0.2886751   0.0000000), wk =   0.0833333
        k(   14) = (   0.1666667   0.3849002   0.0000000), wk =   0.1666667
        k(   15) = (   0.1666667   0.4811252   0.0000000), wk =   0.1666667
        k(   16) = (   0.1666667   0.5773503   0.0000000), wk =   0.0833333
        k(   17) = (   0.2500000   0.4330127   0.0000000), wk =   0.0833333
        k(   18) = (   0.2500000   0.5292377   0.0000000), wk =   0.1666667
        k(   19) = (   0.3333333   0.5773503   0.0000000), wk =   0.0277778

     Dense  grid:    29029 G-vectors     FFT dimensions: (  24,  24, 135)

     Estimated max dynamical RAM per process >       8.39 MB

     Estimated total dynamical RAM >      58.71 MB

     Check: negative core charge=   -0.000002

     Initial potential from superposition of free atoms

     starting charge      15.9998, renormalised to      16.0000

     negative rho (up, down):  2.701E-04 0.000E+00
     Starting wfcs are   16 randomized atomic wfcs

     total cpu time spent up to now is        0.6 secs

     per-process dynamical memory:    11.4 Mb

     Self-consistent Calculation

     iteration #  1     ecut=    55.00 Ry     beta= 0.70
     Davidson diagonalization with overlap
     ethr =  1.00E-02,  avg # of iterations =  8.3

     negative rho (up, down):  1.686E-03 0.000E+00

     total cpu time spent up to now is        1.4 secs

     total energy              =     -22.63945400 Ry
     estimated scf accuracy    <       9.80675890 Ry

     iteration #  2     ecut=    55.00 Ry     beta= 0.70
     Davidson diagonalization with overlap
     ethr =  1.00E-02,  avg # of iterations =  9.2

     total cpu time spent up to now is        2.2 secs

     total energy              =     -24.15163879 Ry
     estimated scf accuracy    <       5.71803905 Ry

     iteration #  3     ecut=    55.00 Ry     beta= 0.70
     Davidson diagonalization with overlap
     ethr =  1.00E-02,  avg # of iterations =  5.2

     total cpu time spent up to now is        2.7 secs

     total energy              =     -26.07754205 Ry
     estimated scf accuracy    <       0.30353944 Ry

     iteration #  4     ecut=    55.00 Ry     beta= 0.70
     Davidson diagonalization with overlap
     ethr =  1.90E-03,  avg # of iterations =  5.2

     total cpu time spent up to now is        3.1 secs

     total energy              =     -26.11339286 Ry
     estimated scf accuracy    <       0.14917374 Ry

     iteration #  5     ecut=    55.00 Ry     beta= 0.70
     Davidson diagonalization with overlap
     ethr =  9.32E-04,  avg # of iterations =  4.4

     negative rho (up, down):  9.532E-06 0.000E+00

     total cpu time spent up to now is        3.5 secs

     total energy              =     -26.09182794 Ry
     estimated scf accuracy    <       0.05559917 Ry

     iteration #  6     ecut=    55.00 Ry     beta= 0.70
     Davidson diagonalization with overlap
     ethr =  3.47E-04,  avg # of iterations =  9.7

     negative rho (up, down):  1.644E-05 0.000E+00

     total cpu time spent up to now is        4.2 secs

     total energy              =     -26.11670663 Ry
     estimated scf accuracy    <       0.01611441 Ry

     iteration #  7     ecut=    55.00 Ry     beta= 0.70
     Davidson diagonalization with overlap
     ethr =  1.01E-04,  avg # of iterations =  5.1

     negative rho (up, down):  7.310E-05 0.000E+00

     total cpu time spent up to now is        4.6 secs

     total energy              =     -26.11477789 Ry
     estimated scf accuracy    <       0.01400419 Ry

     iteration #  8     ecut=    55.00 Ry     beta= 0.70
     Davidson diagonalization with overlap
     ethr =  8.75E-05,  avg # of iterations =  1.8

     negative rho (up, down):  2.737E-04 0.000E+00

     total cpu time spent up to now is        4.9 secs

     total energy              =     -26.11500848 Ry
     estimated scf accuracy    <       0.00254464 Ry

     iteration #  9     ecut=    55.00 Ry     beta= 0.70
     Davidson diagonalization with overlap
     c_bands:  1 eigenvalues not converged
     ethr =  1.59E-05,  avg # of iterations =  9.4

     negative rho (up, down):  1.440E-03 0.000E+00

     total cpu time spent up to now is        5.6 secs

     total energy              =     -26.11681631 Ry
     estimated scf accuracy    <       0.00018705 Ry

     iteration # 10     ecut=    55.00 Ry     beta= 0.70
     Davidson diagonalization with overlap
     c_bands:  2 eigenvalues not converged
     c_bands:  1 eigenvalues not converged
     ethr =  1.17E-06,  avg # of iterations = 11.9

     negative rho (up, down):  1.730E-03 0.000E+00

     total cpu time spent up to now is        6.5 secs

     total energy              =     -26.11712353 Ry
     estimated scf accuracy    <       0.00031254 Ry

     iteration # 11     ecut=    55.00 Ry     beta= 0.70
     Davidson diagonalization with overlap
     c_bands:  1 eigenvalues not converged
     ethr =  1.17E-06,  avg # of iterations =  2.6

     negative rho (up, down):  1.186E-03 0.000E+00

     total cpu time spent up to now is        6.9 secs

     total energy              =     -26.11698361 Ry
     estimated scf accuracy    <       0.00029928 Ry

     iteration # 12     ecut=    55.00 Ry     beta= 0.70
     Davidson diagonalization with overlap
     c_bands:  1 eigenvalues not converged
     ethr =  1.17E-06,  avg # of iterations =  3.3

     negative rho (up, down):  1.182E-03 0.000E+00

     total cpu time spent up to now is        7.3 secs

     total energy              =     -26.11700935 Ry
     estimated scf accuracy    <       0.00001894 Ry

     iteration # 13     ecut=    55.00 Ry     beta= 0.70
     Davidson diagonalization with overlap
     c_bands:  1 eigenvalues not converged
     ethr =  1.18E-07,  avg # of iterations =  7.0

     negative rho (up, down):  1.206E-03 0.000E+00

     total cpu time spent up to now is        7.9 secs

     total energy              =     -26.11703188 Ry
     estimated scf accuracy    <       0.00001233 Ry

     iteration # 14     ecut=    55.00 Ry     beta= 0.70
     Davidson diagonalization with overlap
     ethr =  7.71E-08,  avg # of iterations =  4.3

     negative rho (up, down):  1.196E-03 0.000E+00

     total cpu time spent up to now is        8.4 secs

     total energy              =     -26.11703580 Ry
     estimated scf accuracy    <       0.00000692 Ry

     iteration # 15     ecut=    55.00 Ry     beta= 0.70
     Davidson diagonalization with overlap
     ethr =  4.32E-08,  avg # of iterations =  2.0

     negative rho (up, down):  1.195E-03 0.000E+00

     total cpu time spent up to now is        8.7 secs

     total energy              =     -26.11703699 Ry
     estimated scf accuracy    <       0.00000023 Ry

     iteration # 16     ecut=    55.00 Ry     beta= 0.70
     Davidson diagonalization with overlap
     ethr =  1.44E-09,  avg # of iterations =  9.4

     negative rho (up, down):  1.196E-03 0.000E+00

     total cpu time spent up to now is        9.6 secs

     End of self-consistent calculation

          k = 0.0000 0.0000 0.0000 (  3727 PWs)   bands (ev):

   -24.5247 -23.6924 -23.6924 -16.2335 -10.9986 -10.9986  -5.1761   2.8132
     3.4208   3.5410   4.7886   5.7227

          k = 0.0000 0.0962 0.0000 (  3733 PWs)   bands (ev):

   -24.6387 -23.8936 -23.7848 -16.0565 -10.5764 -10.4246  -5.0171   2.0051
     3.6431   3.7668   5.0079   5.5699

          k = 0.0000 0.1925 0.0000 (  3703 PWs)   bands (ev):

   -25.1443 -24.3939 -23.7529 -15.5253  -9.4405  -8.8669  -4.5443   0.1215
     4.3081   4.4433   5.1099   5.6669

          k = 0.0000 0.2887 0.0000 (  3676 PWs)   bands (ev):

   -25.8779 -24.9924 -23.5196 -14.6633  -7.9024  -6.6685  -3.7658  -2.1732
     4.3425   5.4035   5.5703   6.7573

          k = 0.0000 0.3849 0.0000 (  3662 PWs)   bands (ev):

   -26.5410 -25.5185 -23.2366 -13.5150  -6.3314  -4.5024  -4.2057  -2.6244
     3.2984   6.8815   7.1290   8.2312

          k = 0.0000 0.4811 0.0000 (  3654 PWs)   bands (ev):

   -26.9836 -25.8696 -23.0136 -12.2428  -6.5343  -5.1320  -2.3269  -0.6154
     2.1534   5.4240   8.1099   8.3997

          k = 0.0000-0.5774 0.0000 (  3600 PWs)   bands (ev):

   -27.1365 -25.9915 -22.9293 -11.4979  -7.5366  -4.6766  -1.6158   1.3078
     1.9397   2.9109   7.9333   8.8491

          k = 0.0833 0.1443 0.0000 (  3705 PWs)   bands (ev):

   -25.0149 -24.0409 -23.9457 -15.7003  -9.7763  -9.3826  -4.7013   0.7009
     4.0852   4.2182   5.2650   5.4472

          k = 0.0833 0.2406 0.0000 (  3670 PWs)   bands (ev):

   -25.7364 -24.4992 -23.7802 -15.0024  -8.3967  -7.5617  -4.0775  -1.2915
     4.6602   4.9530   5.1196   6.3213

          k = 0.0833 0.3368 0.0000 (  3669 PWs)   bands (ev):

   -26.4713 -25.0212 -23.4960 -13.9925  -6.7973  -5.2684  -3.5183  -3.1409
     3.7681   6.1196   6.4624   7.5117

          k = 0.0833 0.4330 0.0000 (  3654 PWs)   bands (ev):

   -27.0330 -25.4387 -23.2275 -12.7492  -5.6700  -5.3658  -3.0138  -1.6756
     2.6579   6.2600   6.7972   8.1820

          k = 0.0833 0.5292 0.0000 (  3630 PWs)   bands (ev):

   -27.3322 -25.6659 -23.0656 -11.5822  -7.3120  -4.5020  -1.7037   0.7215
     1.6841   3.9206   5.8902   8.8903

          k = 0.1667 0.2887 0.0000 (  3687 PWs)   bands (ev):

   -26.5049 -24.5804 -23.7891 -14.1537  -6.8677  -5.7447  -3.3055  -3.1077
     3.9460   5.7631   6.2373   6.9950

          k = 0.1667 0.3849 0.0000 (  3677 PWs)   bands (ev):

   -27.1623 -24.8327 -23.6120 -13.0211  -5.2738  -5.0428  -3.6634  -2.1731
     2.9968   4.9902   7.7079   7.7483

          k = 0.1667 0.4811 0.0000 (  3638 PWs)   bands (ev):

   -27.5918 -25.0593 -23.4243 -11.7341  -6.8556  -4.0543  -1.9306  -0.3278
     1.9267   4.1271   5.1132   8.2172

          k = 0.1667 0.5774 0.0000 (  3632 PWs)   bands (ev):

   -27.7407 -25.1451 -23.3490 -10.9414  -7.8310  -3.5909  -1.1738   1.2239
     1.7909   2.8899   3.8283   7.8800

          k = 0.2500 0.4330 0.0000 (  3641 PWs)   bands (ev):

   -27.6914 -24.6701 -23.7194 -11.8011  -6.6170  -3.7338  -2.1314  -0.7578
     2.0668   3.4598   5.6778   7.8198

          k = 0.2500 0.5292 0.0000 (  3658 PWs)   bands (ev):

   -27.9735 -24.6069 -23.7527 -10.5506  -8.0539  -2.7433  -0.8974   1.0526
     1.1425   2.6452   3.5480   6.8839

          k = 0.3333 0.5774 0.0000 (  3666 PWs)   bands (ev):

   -28.1067 -24.1583 -24.1583  -9.2950  -9.2950  -2.1157   0.1413   0.1413
     2.1187   2.3029   2.3029   6.2093

     the Fermi energy is     1.3128 ev

!    total energy              =     -26.11703777 Ry
     estimated scf accuracy    <          8.8E-09 Ry
     smearing contrib. (-TS)   =       0.00012302 Ry
     internal energy E=F+TS    =     -26.11716079 Ry

     The total energy is F=E-TS. E is the sum of the following terms:
     one-electron contribution =    -631.33353958 Ry
     hartree contribution      =     320.06953339 Ry
     xc contribution           =     -21.23061362 Ry
     ewald contribution        =     306.37745902 Ry

     convergence has been achieved in  16 iterations

     negative rho (up, down):  1.196E-03 0.000E+00

     Forces acting on atoms (cartesian axes, Ry/au):

     atom    1 type  1   force =     0.00000000   -0.00000000  -22.67011957
     atom    2 type  1   force =     0.00000000   -0.00000000  -22.67011957
     atom    3 type  1   force =    -0.00000000   -0.00000000   22.67011957
     atom    4 type  1   force =     0.00000000    0.00000000   22.67011957

     Total force =    45.340239     Total SCF correction =     0.000160


     Computing stress (Cartesian axis) and pressure


     negative rho (up, down):  1.196E-03 0.000E+00
          total   stress  (Ry/bohr**3)                   (kbar)     P=     4856.50
   0.00954179   0.00000000   0.00000000         1403.65        0.00        0.00
   0.00000000   0.00954179  -0.00000000            0.00     1403.65       -0.00
   0.00000000  -0.00000000   0.07995787            0.00       -0.00    11762.21


     Writing all to output data dir /run/media/rfa/SATA/Skripsi/DFT/dft-graphene/tmp/gr-aa-2L.save/ :
     XML data file, charge density, pseudopotentials, collected wavefunctions

     init_run     :      0.46s CPU      0.54s WALL (       1 calls)
     electrons    :     16.17s CPU      9.02s WALL (       1 calls)
     forces       :      0.07s CPU      0.04s WALL (       1 calls)
     stress       :      0.19s CPU      0.12s WALL (       1 calls)

     Called by init_run:
     wfcinit      :      0.25s CPU      0.14s WALL (       1 calls)
     potinit      :      0.01s CPU      0.01s WALL (       1 calls)
     hinit0       :      0.18s CPU      0.36s WALL (       1 calls)

     Called by electrons:
     c_bands      :     14.13s CPU      7.80s WALL (      16 calls)
     sum_band     :      1.63s CPU      0.90s WALL (      16 calls)
     v_of_rho     :      0.14s CPU      0.12s WALL (      17 calls)
     newd         :      0.15s CPU      0.14s WALL (      17 calls)
     mix_rho      :      0.09s CPU      0.05s WALL (      16 calls)

     Called by c_bands:
     init_us_2    :      0.25s CPU      0.13s WALL (     665 calls)
     cegterg      :     13.65s CPU      7.51s WALL (     304 calls)

     Called by *egterg:
     cdiaghg      :      0.96s CPU      0.53s WALL (    2180 calls)
     h_psi        :     10.65s CPU      5.90s WALL (    2199 calls)
     s_psi        :      0.20s CPU      0.11s WALL (    2199 calls)
     g_psi        :      0.10s CPU      0.05s WALL (    1876 calls)

     Called by h_psi:
     h_psi:calbec :      1.11s CPU      0.60s WALL (    2199 calls)
     vloc_psi     :      9.00s CPU      5.00s WALL (    2199 calls)
     add_vuspsi   :      0.41s CPU      0.22s WALL (    2199 calls)

     General routines
     calbec       :      1.29s CPU      0.69s WALL (    2826 calls)
     fft          :      0.20s CPU      0.39s WALL (     212 calls)
     ffts         :      0.01s CPU      0.00s WALL (      16 calls)
     fftw         :      8.65s CPU      4.82s WALL (   31924 calls)

     Parallel routines

     PWSCF        :     16.96s CPU     10.01s WALL


   This run was terminated on:   4: 6:55  22Apr2025            

=------------------------------------------------------------------------------=
   JOB DONE.
=------------------------------------------------------------------------------=
