
     Program PWSCF v.7.4.1 starts on 22Apr2025 at  4: 6:35 

     This program is part of the open-source Quantum ESPRESSO suite
     for quantum simulation of materials; please cite
         "P. Giannozzi et al., J. Phys.:Condens. Matter 21 395502 (2009);
         "P. Giannozzi et al., J. Phys.:Condens. Matter 29 465901 (2017);
         "P. Giannozzi et al., J. Chem. Phys. 152 154105 (2020);
          URL http://www.quantum-espresso.org", 
     in publications or presentations arising from this work. More details at
     http://www.quantum-espresso.org/quote

     Parallel version (MPI), running on     7 processors

     MPI processes distributed on     1 nodes
     12195 MiB available memory on the printing compute node when the environment starts

     Waiting for input...
     Reading input from standard input

     Current dimensions of program PWSCF are:
     Max number of different atomic species (ntypx) = 10
     Max number of k-points (npk) =  40000
     Max angular momentum in pseudopotentials (lmaxx) =  4

     R & G space division:  proc/nbgrp/npool/nimage =       7
     Subspace diagonalization in iterative solution of the eigenvalue problem:
     a serial algorithm will be used


     Parallelization info
     --------------------
     sticks:   dense  smooth     PW     G-vecs:    dense   smooth      PW
     Min          43      43     13                 3639     3639     639
     Max          43      43     13                 3649     3649     655
     Sum         301     301     91                25507    25507    4493

     Using Slab Decomposition



     bravais-lattice index     =            4
     lattice parameter (alat)  =       4.6561  a.u.
     unit-cell volume          =     532.1899 (a.u.)^3
     number of atoms/cell      =            4
     number of atomic types    =            1
     number of electrons       =        16.00
     number of Kohn-Sham states=           12
     kinetic-energy cutoff     =      50.0000  Ry
     charge density cutoff     =     200.0000  Ry
     scf convergence threshold =      1.0E-08
     mixing beta               =       0.7000
     number of iterations used =            8  plain     mixing
     Exchange-correlation= PBE
                           (   1   4   3   4   0   0   0)

     celldm(1)=   4.656107  celldm(2)=   0.000000  celldm(3)=   6.087896
     celldm(4)=   0.000000  celldm(5)=   0.000000  celldm(6)=   0.000000

     crystal axes: (cart. coord. in units of alat)
               a(1) = (   1.000000   0.000000   0.000000 )  
               a(2) = (  -0.500000   0.866025   0.000000 )  
               a(3) = (   0.000000   0.000000   6.087896 )  

     reciprocal axes: (cart. coord. in units 2 pi/alat)
               b(1) = (  1.000000  0.577350 -0.000000 )  
               b(2) = (  0.000000  1.154701  0.000000 )  
               b(3) = (  0.000000 -0.000000  0.164260 )  


     PseudoPot. # 1 for C  read from file:
     /run/media/rfa/SATA/Skripsi/DFT/dft-graphene/pseudo/C.pbe-n-rrkjus_psl.0.1.UPF
     MD5 check sum: 96a6a315177d77e6c95bf6fd3870f9e3
     Pseudo is Ultrasoft + core correction, Zval =  4.0
     Generated using &quot;atomic&quot; code by A. Dal Corso  v.6.3MaX
     Using radial grid of 1073 points,  4 beta functions with: 
                l(1) =   0
                l(2) =   0
                l(3) =   1
                l(4) =   1
     Q(r) pseudized with 0 coefficients 


     atomic species   valence    mass     pseudopotential
     C                 4.00    12.01070     C ( 1.00)

     12 Sym. Ops. (no inversion) found



   Cartesian axes

     site n.     atom                  positions (alat units)
         1        C      tau(   1) = (   0.0000000   0.5773503   3.0439478  )
         2        C      tau(   2) = (   0.5000000   0.2886751   3.0439478  )
         3        C      tau(   3) = (   0.0000000   0.5773503   3.2468777  )
         4        C      tau(   4) = (   0.5000000   0.2886751   3.2468777  )

     number of k points=    19  Marzari-Vanderbilt smearing, width (Ry)=  0.0200
                       cart. coord. in units 2pi/alat
        k(    1) = (   0.0000000   0.0000000   0.0000000), wk =   0.0138889
        k(    2) = (   0.0000000   0.0962250   0.0000000), wk =   0.0833333
        k(    3) = (   0.0000000   0.1924501   0.0000000), wk =   0.0833333
        k(    4) = (   0.0000000   0.2886751   0.0000000), wk =   0.0833333
        k(    5) = (   0.0000000   0.3849002   0.0000000), wk =   0.0833333
        k(    6) = (   0.0000000   0.4811252   0.0000000), wk =   0.0833333
        k(    7) = (   0.0000000  -0.5773503   0.0000000), wk =   0.0416667
        k(    8) = (   0.0833333   0.1443376   0.0000000), wk =   0.0833333
        k(    9) = (   0.0833333   0.2405626   0.0000000), wk =   0.1666667
        k(   10) = (   0.0833333   0.3367877   0.0000000), wk =   0.1666667
        k(   11) = (   0.0833333   0.4330127   0.0000000), wk =   0.1666667
        k(   12) = (   0.0833333   0.5292377   0.0000000), wk =   0.1666667
        k(   13) = (   0.1666667   0.2886751   0.0000000), wk =   0.0833333
        k(   14) = (   0.1666667   0.3849002   0.0000000), wk =   0.1666667
        k(   15) = (   0.1666667   0.4811252   0.0000000), wk =   0.1666667
        k(   16) = (   0.1666667   0.5773503   0.0000000), wk =   0.0833333
        k(   17) = (   0.2500000   0.4330127   0.0000000), wk =   0.0833333
        k(   18) = (   0.2500000   0.5292377   0.0000000), wk =   0.1666667
        k(   19) = (   0.3333333   0.5773503   0.0000000), wk =   0.0277778

     Dense  grid:    25507 G-vectors     FFT dimensions: (  24,  24, 128)

     Estimated max dynamical RAM per process >       7.45 MB

     Estimated total dynamical RAM >      52.17 MB

     Check: negative core charge=   -0.000006

     Initial potential from superposition of free atoms

     starting charge      15.9998, renormalised to      16.0000

     negative rho (up, down):  3.779E-04 0.000E+00
     Starting wfcs are   16 randomized atomic wfcs

     total cpu time spent up to now is        0.6 secs

     per-process dynamical memory:    11.3 Mb

     Self-consistent Calculation

     iteration #  1     ecut=    50.00 Ry     beta= 0.70
     Davidson diagonalization with overlap
     ethr =  1.00E-02,  avg # of iterations =  8.3

     negative rho (up, down):  2.346E-03 0.000E+00

     total cpu time spent up to now is        1.3 secs

     total energy              =     -22.63840675 Ry
     estimated scf accuracy    <       9.75462493 Ry

     iteration #  2     ecut=    50.00 Ry     beta= 0.70
     Davidson diagonalization with overlap
     ethr =  1.00E-02,  avg # of iterations =  8.2

     total cpu time spent up to now is        1.9 secs

     total energy              =     -24.34402946 Ry
     estimated scf accuracy    <       5.19872073 Ry

     iteration #  3     ecut=    50.00 Ry     beta= 0.70
     Davidson diagonalization with overlap
     ethr =  1.00E-02,  avg # of iterations =  5.7

     total cpu time spent up to now is        2.3 secs

     total energy              =     -26.04383250 Ry
     estimated scf accuracy    <       0.26420384 Ry

     iteration #  4     ecut=    50.00 Ry     beta= 0.70
     Davidson diagonalization with overlap
     ethr =  1.65E-03,  avg # of iterations =  5.8

     total cpu time spent up to now is        2.7 secs

     total energy              =     -26.08200047 Ry
     estimated scf accuracy    <       0.12442703 Ry

     iteration #  5     ecut=    50.00 Ry     beta= 0.70
     Davidson diagonalization with overlap
     ethr =  7.78E-04,  avg # of iterations =  4.6

     negative rho (up, down):  3.867E-05 0.000E+00

     total cpu time spent up to now is        3.0 secs

     total energy              =     -26.06710600 Ry
     estimated scf accuracy    <       0.04463417 Ry

     iteration #  6     ecut=    50.00 Ry     beta= 0.70
     Davidson diagonalization with overlap
     c_bands:  1 eigenvalues not converged
     c_bands:  1 eigenvalues not converged
     ethr =  2.79E-04,  avg # of iterations = 11.6

     negative rho (up, down):  5.969E-05 0.000E+00

     total cpu time spent up to now is        3.6 secs

     total energy              =     -26.08994618 Ry
     estimated scf accuracy    <       0.01737040 Ry

     iteration #  7     ecut=    50.00 Ry     beta= 0.70
     Davidson diagonalization with overlap
     ethr =  1.09E-04,  avg # of iterations =  4.0

     negative rho (up, down):  1.042E-04 0.000E+00

     total cpu time spent up to now is        3.9 secs

     total energy              =     -26.08575545 Ry
     estimated scf accuracy    <       0.01570164 Ry

     iteration #  8     ecut=    50.00 Ry     beta= 0.70
     Davidson diagonalization with overlap
     ethr =  9.81E-05,  avg # of iterations =  2.0

     negative rho (up, down):  2.844E-04 0.000E+00

     total cpu time spent up to now is        4.2 secs

     total energy              =     -26.08663529 Ry
     estimated scf accuracy    <       0.00201415 Ry

     iteration #  9     ecut=    50.00 Ry     beta= 0.70
     Davidson diagonalization with overlap
     c_bands:  1 eigenvalues not converged
     ethr =  1.26E-05,  avg # of iterations = 10.4

     negative rho (up, down):  1.013E-03 0.000E+00

     total cpu time spent up to now is        4.8 secs

     total energy              =     -26.08841518 Ry
     estimated scf accuracy    <       0.00020481 Ry

     iteration # 10     ecut=    50.00 Ry     beta= 0.70
     Davidson diagonalization with overlap
     c_bands:  1 eigenvalues not converged
     c_bands:  1 eigenvalues not converged
     ethr =  1.28E-06,  avg # of iterations = 11.6

     negative rho (up, down):  9.169E-04 0.000E+00

     total cpu time spent up to now is        5.5 secs

     total energy              =     -26.08839797 Ry
     estimated scf accuracy    <       0.00040544 Ry

     iteration # 11     ecut=    50.00 Ry     beta= 0.70
     Davidson diagonalization with overlap
     c_bands:  1 eigenvalues not converged
     c_bands:  1 eigenvalues not converged
     ethr =  1.28E-06,  avg # of iterations =  4.4

     negative rho (up, down):  8.480E-04 0.000E+00

     total cpu time spent up to now is        5.8 secs

     total energy              =     -26.08845472 Ry
     estimated scf accuracy    <       0.00001332 Ry

     iteration # 12     ecut=    50.00 Ry     beta= 0.70
     Davidson diagonalization with overlap
     c_bands:  1 eigenvalues not converged
     ethr =  8.33E-08,  avg # of iterations =  8.6

     negative rho (up, down):  8.584E-04 0.000E+00

     total cpu time spent up to now is        6.5 secs

     total energy              =     -26.08848477 Ry
     estimated scf accuracy    <       0.00002209 Ry

     iteration # 13     ecut=    50.00 Ry     beta= 0.70
     Davidson diagonalization with overlap
     ethr =  8.33E-08,  avg # of iterations =  1.7

     negative rho (up, down):  8.707E-04 0.000E+00

     total cpu time spent up to now is        6.7 secs

     total energy              =     -26.08848455 Ry
     estimated scf accuracy    <       0.00000398 Ry

     iteration # 14     ecut=    50.00 Ry     beta= 0.70
     Davidson diagonalization with overlap
     ethr =  2.49E-08,  avg # of iterations =  4.7

     negative rho (up, down):  8.682E-04 0.000E+00

     total cpu time spent up to now is        7.1 secs

     total energy              =     -26.08848703 Ry
     estimated scf accuracy    <       0.00000065 Ry

     iteration # 15     ecut=    50.00 Ry     beta= 0.70
     Davidson diagonalization with overlap
     ethr =  4.05E-09,  avg # of iterations =  4.0

     negative rho (up, down):  8.669E-04 0.000E+00

     total cpu time spent up to now is        7.5 secs

     total energy              =     -26.08848717 Ry
     estimated scf accuracy    <       0.00000016 Ry

     iteration # 16     ecut=    50.00 Ry     beta= 0.70
     Davidson diagonalization with overlap
     ethr =  9.77E-10,  avg # of iterations =  4.8

     negative rho (up, down):  8.682E-04 0.000E+00

     total cpu time spent up to now is        7.9 secs

     total energy              =     -26.08848728 Ry
     estimated scf accuracy    <       0.00000006 Ry

     iteration # 17     ecut=    50.00 Ry     beta= 0.70
     Davidson diagonalization with overlap
     ethr =  3.75E-10,  avg # of iterations =  3.0

     negative rho (up, down):  8.681E-04 0.000E+00

     total cpu time spent up to now is        8.2 secs

     End of self-consistent calculation

          k = 0.0000 0.0000 0.0000 (  3135 PWs)   bands (ev):

   -24.5469 -23.7239 -23.7239 -16.1931 -11.0213 -11.0213  -5.1997   2.9342
     3.5024   3.6748   4.8882   5.6698

          k = 0.0000 0.0962 0.0000 (  3173 PWs)   bands (ev):

   -24.6614 -23.9240 -23.8148 -16.0185 -10.5999 -10.4500  -5.0412   2.1145
     3.7240   3.9001   5.1080   5.5172

          k = 0.0000 0.1925 0.0000 (  3183 PWs)   bands (ev):

   -25.1692 -24.4245 -23.7811 -15.4872  -9.4665  -8.8938  -4.5701   0.2085
     4.3877   4.5748   5.0603   5.7670

          k = 0.0000 0.2887 0.0000 (  3177 PWs)   bands (ev):

   -25.9034 -25.0220 -23.5462 -14.6257  -7.9306  -6.6935  -3.7948  -2.1095
     4.2971   5.4804   5.6984   6.8577

          k = 0.0000 0.3849 0.0000 (  3189 PWs)   bands (ev):

   -26.5672 -25.5487 -23.2636 -13.4746  -6.3622  -4.4474  -4.2243  -2.6605
     3.2587   6.9527   7.2483   8.3034

          k = 0.0000 0.4811 0.0000 (  3207 PWs)   bands (ev):

   -27.0102 -25.9000 -23.0410 -12.2008  -6.4861  -5.1653  -2.3441  -0.6548
     2.1199   5.3997   8.0956   8.4534

          k = 0.0000-0.5774 0.0000 (  3208 PWs)   bands (ev):

   -27.1638 -26.0218 -22.9577 -11.4506  -7.4950  -4.7111  -1.6370   1.2692
     1.8991   2.8955   7.9190   8.8900

          k = 0.0833 0.1443 0.0000 (  3191 PWs)   bands (ev):

   -25.0398 -24.0718 -23.9744 -15.6644  -9.8015  -9.4101  -4.7265   0.7842
     4.1649   4.3504   5.2137   5.5470

          k = 0.0833 0.2406 0.0000 (  3176 PWs)   bands (ev):

   -25.7632 -24.5288 -23.8073 -14.9654  -8.4244  -7.5884  -4.1051  -1.2187
     4.6128   5.0298   5.2491   6.4214

          k = 0.0833 0.3368 0.0000 (  3174 PWs)   bands (ev):

   -26.4979 -25.0500 -23.5227 -13.9532  -6.8264  -5.2901  -3.4535  -3.1731
     3.7258   6.1797   6.5864   7.5445

          k = 0.0833 0.4330 0.0000 (  3188 PWs)   bands (ev):

   -27.0605 -25.4674 -23.2548 -12.7074  -5.6127  -5.3949  -3.0293  -1.7161
     2.6216   6.2651   6.7726   8.2796

          k = 0.0833 0.5292 0.0000 (  3187 PWs)   bands (ev):

   -27.3597 -25.6948 -23.0932 -11.5372  -7.2628  -4.5308  -1.7236   0.6819
     1.6536   3.8960   5.8922   8.8799

          k = 0.1667 0.2887 0.0000 (  3165 PWs)   bands (ev):

   -26.5320 -24.6090 -23.8150 -14.1094  -6.8941  -5.7684  -3.3366  -3.0362
     3.9025   5.8111   6.3622   7.0415

          k = 0.1667 0.3849 0.0000 (  3167 PWs)   bands (ev):

   -27.1893 -24.8604 -23.6385 -12.9728  -5.3009  -4.9779  -3.6803  -2.2111
     2.9585   4.9903   7.6828   7.8541

          k = 0.1667 0.4811 0.0000 (  3169 PWs)   bands (ev):

   -27.6192 -25.0877 -23.4514 -11.6872  -6.7997  -4.0827  -1.9470  -0.3682
     1.8942   4.1243   5.0849   8.2084

          k = 0.1667 0.5774 0.0000 (  3186 PWs)   bands (ev):

   -27.7684 -25.1740 -23.3769 -10.8925  -7.7856  -3.6199  -1.1950   1.1908
     1.7501   2.8669   3.8253   7.8652

          k = 0.2500 0.4330 0.0000 (  3157 PWs)   bands (ev):

   -27.7193 -24.6986 -23.7466 -11.7530  -6.5619  -3.7610  -2.1449  -0.8003
     2.0333   3.4542   5.6456   7.8125

          k = 0.2500 0.5292 0.0000 (  3158 PWs)   bands (ev):

   -28.0003 -24.6348 -23.7798 -10.5001  -8.0010  -2.7710  -0.9160   1.0158
     1.1118   2.6378   3.5143   6.8731

          k = 0.3333 0.5774 0.0000 (  3171 PWs)   bands (ev):

   -28.1336 -24.1860 -24.1860  -9.2454  -9.2454  -2.1448   0.1195   0.1195
     2.1096   2.2627   2.2627   6.2009

     the Fermi energy is     1.2762 ev

!    total energy              =     -26.08848730 Ry
     estimated scf accuracy    <          3.9E-09 Ry
     smearing contrib. (-TS)   =       0.00021071 Ry
     internal energy E=F+TS    =     -26.08869800 Ry

     The total energy is F=E-TS. E is the sum of the following terms:
     one-electron contribution =    -631.27125064 Ry
     hartree contribution      =     320.02946389 Ry
     xc contribution           =     -21.22437001 Ry
     ewald contribution        =     306.37745876 Ry

     convergence has been achieved in  17 iterations

     negative rho (up, down):  8.681E-04 0.000E+00

     Forces acting on atoms (cartesian axes, Ry/au):

     atom    1 type  1   force =    -0.00000000   -0.00000000  -22.77370418
     atom    2 type  1   force =    -0.00000000   -0.00000000  -22.77370418
     atom    3 type  1   force =     0.00000000    0.00000000   22.77370418
     atom    4 type  1   force =     0.00000000    0.00000000   22.77370418

     Total force =    45.547408     Total SCF correction =     0.000183


     Computing stress (Cartesian axis) and pressure


     negative rho (up, down):  8.681E-04 0.000E+00
          total   stress  (Ry/bohr**3)                   (kbar)     P=     4849.13
   0.00946820   0.00000000  -0.00000000         1392.82        0.00       -0.00
   0.00000000   0.00946820   0.00000000            0.00     1392.82        0.00
  -0.00000000   0.00000000   0.07995478           -0.00        0.00    11761.75


     Writing all to output data dir /run/media/rfa/SATA/Skripsi/DFT/dft-graphene/tmp/gr-aa-2L.save/ :
     XML data file, charge density, pseudopotentials, collected wavefunctions

     init_run     :      0.47s CPU      0.56s WALL (       1 calls)
     electrons    :     14.12s CPU      7.62s WALL (       1 calls)
     forces       :      0.05s CPU      0.03s WALL (       1 calls)
     stress       :      0.17s CPU      0.10s WALL (       1 calls)

     Called by init_run:
     wfcinit      :      0.22s CPU      0.12s WALL (       1 calls)
     potinit      :      0.01s CPU      0.01s WALL (       1 calls)
     hinit0       :      0.22s CPU      0.41s WALL (       1 calls)

     Called by electrons:
     c_bands      :     12.31s CPU      6.58s WALL (      17 calls)
     sum_band     :      1.47s CPU      0.77s WALL (      17 calls)
     v_of_rho     :      0.15s CPU      0.12s WALL (      18 calls)
     newd         :      0.10s CPU      0.10s WALL (      18 calls)
     mix_rho      :      0.07s CPU      0.04s WALL (      17 calls)

     Called by c_bands:
     init_us_2    :      0.24s CPU      0.12s WALL (     703 calls)
     cegterg      :     11.88s CPU      6.33s WALL (     323 calls)

     Called by *egterg:
     cdiaghg      :      1.03s CPU      0.56s WALL (    2289 calls)
     h_psi        :      9.13s CPU      4.85s WALL (    2308 calls)
     s_psi        :      0.20s CPU      0.10s WALL (    2308 calls)
     g_psi        :      0.09s CPU      0.05s WALL (    1966 calls)

     Called by h_psi:
     h_psi:calbec :      0.94s CPU      0.49s WALL (    2308 calls)
     vloc_psi     :      7.77s CPU      4.10s WALL (    2308 calls)
     add_vuspsi   :      0.31s CPU      0.17s WALL (    2308 calls)

     General routines
     calbec       :      1.08s CPU      0.56s WALL (    2954 calls)
     fft          :      0.26s CPU      0.44s WALL (     223 calls)
     ffts         :      0.01s CPU      0.00s WALL (      17 calls)
     fftw         :      7.36s CPU      3.88s WALL (   32364 calls)

     Parallel routines

     PWSCF        :     14.88s CPU      8.58s WALL


   This run was terminated on:   4: 6:44  22Apr2025            

=------------------------------------------------------------------------------=
   JOB DONE.
=------------------------------------------------------------------------------=
