
     Program PWSCF v.7.4.1 starts on 22Apr2025 at  4: 5:56 

     This program is part of the open-source Quantum ESPRESSO suite
     for quantum simulation of materials; please cite
         "P. Giannozzi et al., J. Phys.:Condens. Matter 21 395502 (2009);
         "P. Giannozzi et al., J. Phys.:Condens. Matter 29 465901 (2017);
         "P. Giannozzi et al., J. Chem. Phys. 152 154105 (2020);
          URL http://www.quantum-espresso.org", 
     in publications or presentations arising from this work. More details at
     http://www.quantum-espresso.org/quote

     Parallel version (MPI), running on     7 processors

     MPI processes distributed on     1 nodes
     12169 MiB available memory on the printing compute node when the environment starts

     Waiting for input...
     Reading input from standard input

     Current dimensions of program PWSCF are:
     Max number of different atomic species (ntypx) = 10
     Max number of k-points (npk) =  40000
     Max angular momentum in pseudopotentials (lmaxx) =  4

     R & G space division:  proc/nbgrp/npool/nimage =       7
     Subspace diagonalization in iterative solution of the eigenvalue problem:
     a serial algorithm will be used


     Parallelization info
     --------------------
     sticks:   dense  smooth     PW     G-vecs:    dense   smooth      PW
     Min          18      18      6                 1042     1042     210
     Max          19      19      7                 1062     1062     224
     Sum         127     127     43                 7339     7339    1521

     Using Slab Decomposition



     bravais-lattice index     =            4
     lattice parameter (alat)  =       4.6561  a.u.
     unit-cell volume          =     532.1899 (a.u.)^3
     number of atoms/cell      =            4
     number of atomic types    =            1
     number of electrons       =        16.00
     number of Kohn-Sham states=           12
     kinetic-energy cutoff     =      22.0000  Ry
     charge density cutoff     =      88.0000  Ry
     scf convergence threshold =      1.0E-08
     mixing beta               =       0.7000
     number of iterations used =            8  plain     mixing
     Exchange-correlation= PBE
                           (   1   4   3   4   0   0   0)

     celldm(1)=   4.656107  celldm(2)=   0.000000  celldm(3)=   6.087896
     celldm(4)=   0.000000  celldm(5)=   0.000000  celldm(6)=   0.000000

     crystal axes: (cart. coord. in units of alat)
               a(1) = (   1.000000   0.000000   0.000000 )  
               a(2) = (  -0.500000   0.866025   0.000000 )  
               a(3) = (   0.000000   0.000000   6.087896 )  

     reciprocal axes: (cart. coord. in units 2 pi/alat)
               b(1) = (  1.000000  0.577350 -0.000000 )  
               b(2) = (  0.000000  1.154701  0.000000 )  
               b(3) = (  0.000000 -0.000000  0.164260 )  


     PseudoPot. # 1 for C  read from file:
     /run/media/rfa/SATA/Skripsi/DFT/dft-graphene/pseudo/C.pbe-n-rrkjus_psl.0.1.UPF
     MD5 check sum: 96a6a315177d77e6c95bf6fd3870f9e3
     Pseudo is Ultrasoft + core correction, Zval =  4.0
     Generated using &quot;atomic&quot; code by A. Dal Corso  v.6.3MaX
     Using radial grid of 1073 points,  4 beta functions with: 
                l(1) =   0
                l(2) =   0
                l(3) =   1
                l(4) =   1
     Q(r) pseudized with 0 coefficients 


     atomic species   valence    mass     pseudopotential
     C                 4.00    12.01070     C ( 1.00)

     12 Sym. Ops. (no inversion) found



   Cartesian axes

     site n.     atom                  positions (alat units)
         1        C      tau(   1) = (   0.0000000   0.5773503   3.0439478  )
         2        C      tau(   2) = (   0.5000000   0.2886751   3.0439478  )
         3        C      tau(   3) = (   0.0000000   0.5773503   3.2468777  )
         4        C      tau(   4) = (   0.5000000   0.2886751   3.2468777  )

     number of k points=    19  Marzari-Vanderbilt smearing, width (Ry)=  0.0200
                       cart. coord. in units 2pi/alat
        k(    1) = (   0.0000000   0.0000000   0.0000000), wk =   0.0138889
        k(    2) = (   0.0000000   0.0962250   0.0000000), wk =   0.0833333
        k(    3) = (   0.0000000   0.1924501   0.0000000), wk =   0.0833333
        k(    4) = (   0.0000000   0.2886751   0.0000000), wk =   0.0833333
        k(    5) = (   0.0000000   0.3849002   0.0000000), wk =   0.0833333
        k(    6) = (   0.0000000   0.4811252   0.0000000), wk =   0.0833333
        k(    7) = (   0.0000000  -0.5773503   0.0000000), wk =   0.0416667
        k(    8) = (   0.0833333   0.1443376   0.0000000), wk =   0.0833333
        k(    9) = (   0.0833333   0.2405626   0.0000000), wk =   0.1666667
        k(   10) = (   0.0833333   0.3367877   0.0000000), wk =   0.1666667
        k(   11) = (   0.0833333   0.4330127   0.0000000), wk =   0.1666667
        k(   12) = (   0.0833333   0.5292377   0.0000000), wk =   0.1666667
        k(   13) = (   0.1666667   0.2886751   0.0000000), wk =   0.0833333
        k(   14) = (   0.1666667   0.3849002   0.0000000), wk =   0.1666667
        k(   15) = (   0.1666667   0.4811252   0.0000000), wk =   0.1666667
        k(   16) = (   0.1666667   0.5773503   0.0000000), wk =   0.0833333
        k(   17) = (   0.2500000   0.4330127   0.0000000), wk =   0.0833333
        k(   18) = (   0.2500000   0.5292377   0.0000000), wk =   0.1666667
        k(   19) = (   0.3333333   0.5773503   0.0000000), wk =   0.0277778

     Dense  grid:     7339 G-vectors     FFT dimensions: (  15,  15,  90)

     Estimated max dynamical RAM per process >       2.25 MB

     Estimated total dynamical RAM >      15.78 MB

     Check: negative core charge=   -0.000231

     Initial potential from superposition of free atoms

     starting charge      15.9998, renormalised to      16.0000

     negative rho (up, down):  1.226E-02 0.000E+00
     Starting wfcs are   16 randomized atomic wfcs

     total cpu time spent up to now is        0.3 secs

     per-process dynamical memory:     8.3 Mb

     Self-consistent Calculation

     iteration #  1     ecut=    22.00 Ry     beta= 0.70
     Davidson diagonalization with overlap
     ethr =  1.00E-02,  avg # of iterations =  5.3

     negative rho (up, down):  1.649E-01 0.000E+00

     total cpu time spent up to now is        0.5 secs

     total energy              =     -21.35511279 Ry
     estimated scf accuracy    <       7.31831288 Ry

     iteration #  2     ecut=    22.00 Ry     beta= 0.70
     Davidson diagonalization with overlap
     ethr =  1.00E-02,  avg # of iterations =  7.6

     negative rho (up, down):  6.046E-03 0.000E+00

     total cpu time spent up to now is        0.6 secs

     total energy              =     -17.05765500 Ry
     estimated scf accuracy    <      20.56587326 Ry

     iteration #  3     ecut=    22.00 Ry     beta= 0.70
     Davidson diagonalization with overlap
     ethr =  1.00E-02,  avg # of iterations =  7.8

     negative rho (up, down):  7.354E-03 0.000E+00

     total cpu time spent up to now is        0.7 secs

     total energy              =     -24.10308066 Ry
     estimated scf accuracy    <       0.89086782 Ry

     iteration #  4     ecut=    22.00 Ry     beta= 0.70
     Davidson diagonalization with overlap
     ethr =  5.57E-03,  avg # of iterations =  2.3

     negative rho (up, down):  1.232E-02 0.000E+00

     total cpu time spent up to now is        0.8 secs

     total energy              =     -24.00625820 Ry
     estimated scf accuracy    <       0.47725301 Ry

     iteration #  5     ecut=    22.00 Ry     beta= 0.70
     Davidson diagonalization with overlap
     ethr =  2.98E-03,  avg # of iterations =  1.3

     negative rho (up, down):  2.210E-02 0.000E+00

     total cpu time spent up to now is        0.9 secs

     total energy              =     -23.89200739 Ry
     estimated scf accuracy    <       0.30430478 Ry

     iteration #  6     ecut=    22.00 Ry     beta= 0.70
     Davidson diagonalization with overlap
     ethr =  1.90E-03,  avg # of iterations =  1.9

     negative rho (up, down):  3.739E-02 0.000E+00

     total cpu time spent up to now is        1.0 secs

     total energy              =     -23.83780275 Ry
     estimated scf accuracy    <       0.12957352 Ry

     iteration #  7     ecut=    22.00 Ry     beta= 0.70
     Davidson diagonalization with overlap
     ethr =  8.10E-04,  avg # of iterations =  3.2

     negative rho (up, down):  7.309E-02 0.000E+00

     total cpu time spent up to now is        1.0 secs

     total energy              =     -23.79938710 Ry
     estimated scf accuracy    <       0.05088785 Ry

     iteration #  8     ecut=    22.00 Ry     beta= 0.70
     Davidson diagonalization with overlap
     ethr =  3.18E-04,  avg # of iterations =  5.9

     negative rho (up, down):  9.194E-02 0.000E+00

     total cpu time spent up to now is        1.2 secs

     total energy              =     -23.80312743 Ry
     estimated scf accuracy    <       0.00158024 Ry

     iteration #  9     ecut=    22.00 Ry     beta= 0.70
     Davidson diagonalization with overlap
     ethr =  9.88E-06,  avg # of iterations =  8.6

     negative rho (up, down):  8.228E-02 0.000E+00

     total cpu time spent up to now is        1.3 secs

     total energy              =     -23.80309392 Ry
     estimated scf accuracy    <       0.00053793 Ry

     iteration # 10     ecut=    22.00 Ry     beta= 0.70
     Davidson diagonalization with overlap
     ethr =  3.36E-06,  avg # of iterations =  7.2

     negative rho (up, down):  8.624E-02 0.000E+00

     total cpu time spent up to now is        1.4 secs

     total energy              =     -23.80313847 Ry
     estimated scf accuracy    <       0.00007755 Ry

     iteration # 11     ecut=    22.00 Ry     beta= 0.70
     Davidson diagonalization with overlap
     ethr =  4.85E-07,  avg # of iterations =  4.9

     negative rho (up, down):  8.499E-02 0.000E+00

     total cpu time spent up to now is        1.5 secs

     total energy              =     -23.80313256 Ry
     estimated scf accuracy    <       0.00001309 Ry

     iteration # 12     ecut=    22.00 Ry     beta= 0.70
     Davidson diagonalization with overlap
     ethr =  8.18E-08,  avg # of iterations =  2.5

     negative rho (up, down):  8.501E-02 0.000E+00

     total cpu time spent up to now is        1.6 secs

     total energy              =     -23.80313372 Ry
     estimated scf accuracy    <       0.00000008 Ry

     iteration # 13     ecut=    22.00 Ry     beta= 0.70
     Davidson diagonalization with overlap
     ethr =  5.19E-10,  avg # of iterations =  4.5

     negative rho (up, down):  8.500E-02 0.000E+00

     total cpu time spent up to now is        1.7 secs

     total energy              =     -23.80313393 Ry
     estimated scf accuracy    <       0.00000006 Ry

     iteration # 14     ecut=    22.00 Ry     beta= 0.70
     Davidson diagonalization with overlap
     ethr =  3.82E-10,  avg # of iterations =  1.6

     negative rho (up, down):  8.499E-02 0.000E+00

     total cpu time spent up to now is        1.8 secs

     End of self-consistent calculation

          k = 0.0000 0.0000 0.0000 (   943 PWs)   bands (ev):

   -26.9251 -26.6152 -26.6152 -14.2404 -11.9831 -11.9831  -7.1014   2.0249
     2.2912   3.4471   3.8993   4.6883

          k = 0.0000 0.0962 0.0000 (   946 PWs)   bands (ev):

   -27.0671 -26.7557 -26.6034 -14.0992 -11.8230 -11.6955  -6.9126   2.2526
     2.5167   3.2600   3.6716   4.9105

          k = 0.0000 0.1925 0.0000 (   952 PWs)   bands (ev):

   -27.6295 -27.2277 -26.4175 -13.5754 -11.0494 -10.6047  -6.4715   2.8773
     2.9341   3.1951   4.0707   4.3367

          k = 0.0000 0.2887 0.0000 (   960 PWs)   bands (ev):

   -28.3495 -27.7902 -26.1125 -12.7104  -9.6936  -8.5093  -5.8898   0.9185
     2.1024   4.0644   4.3338   5.4301

          k = 0.0000 0.3849 0.0000 (   934 PWs)   bands (ev):

   -28.8990 -28.2305 -25.6023 -11.3656  -7.9279  -5.7030  -4.7044  -1.8657
     1.2483   5.6431   5.9248   6.3442

          k = 0.0000 0.4811 0.0000 (   922 PWs)   bands (ev):

   -29.2119 -28.5458 -24.9274  -9.7722  -6.7035  -4.3356  -4.1071  -1.7798
     0.2468   3.9315   6.5625   7.5317

          k = 0.0000-0.5774 0.0000 (   906 PWs)   bands (ev):

   -29.0521 -28.6304 -24.6916  -8.9131  -5.9967  -5.6352  -3.4781  -0.8306
     0.9345   1.9577   6.4305   8.0347

          k = 0.0833 0.1443 0.0000 (   939 PWs)   bands (ev):

   -27.5420 -26.8088 -26.6276 -13.7107 -11.0893 -11.0160  -6.5241   2.7088
     2.9714   3.2844   4.1216   5.3593

          k = 0.0833 0.2406 0.0000 (   948 PWs)   bands (ev):

   -28.2845 -27.2036 -26.3899 -13.0151  -9.8523  -9.3410  -6.0428   2.1394
     2.5026   3.6138   3.8774   4.9983

          k = 0.0833 0.3368 0.0000 (   946 PWs)   bands (ev):

   -28.9775 -27.6634 -25.9894 -11.9258  -8.3668  -6.9654  -5.2355  -0.6124
     1.5589   4.9683   5.2205   6.3198

          k = 0.0833 0.4330 0.0000 (   919 PWs)   bands (ev):

   -29.4304 -27.9444 -25.3469 -10.3725  -6.7684  -4.5040  -3.2342  -3.1537
     0.6582   5.0334   5.5028   6.7371

          k = 0.0833 0.5292 0.0000 (   915 PWs)   bands (ev):

   -29.6076 -28.1107 -24.9335  -8.9949  -5.7382  -5.1905  -3.5760  -0.9534
     0.2306   2.6217   5.0989   7.5986

          k = 0.1667 0.2887 0.0000 (   937 PWs)   bands (ev):

   -29.0560 -27.0830 -26.3128 -12.0422  -7.5293  -7.4011  -5.3348   0.0723
     1.6721   4.7437   4.9413   5.5792

          k = 0.1667 0.3849 0.0000 (   922 PWs)   bands (ev):

   -29.6587 -27.1867 -25.9756 -10.7893  -6.1542  -5.1158  -4.2155  -2.0713
     0.9883   4.0266   5.7329   6.2932

          k = 0.1667 0.4811 0.0000 (   910 PWs)   bands (ev):

   -30.0052 -27.3501 -25.4946  -9.2175  -4.8252  -4.2047  -3.6497  -1.6732
    -0.0023   3.1825   3.5420   6.9458

          k = 0.1667 0.5774 0.0000 (   914 PWs)   bands (ev):

   -30.2192 -27.4865 -25.3521  -8.2283  -5.4780  -4.5812  -3.0521  -0.8190
     0.8462   1.4182   2.8889   6.4461

          k = 0.2500 0.4330 0.0000 (   905 PWs)   bands (ev):

   -30.1539 -26.7914 -25.9905  -9.3496  -3.8022  -3.6635  -3.2544  -2.7349
     0.1339   2.3034   3.9134   6.5284

          k = 0.2500 0.5292 0.0000 (   904 PWs)   bands (ev):

   -30.5173 -26.7850 -25.8386  -7.8493  -5.2806  -2.8119  -2.1945  -0.9036
    -0.0354   1.3981   2.0074   5.3862

          k = 0.3333 0.5774 0.0000 (   900 PWs)   bands (ev):

   -30.6649 -26.2253 -26.2253  -6.5038  -6.5038  -1.8852  -1.8852   0.5526
     0.5526   0.7084   0.7751   4.6493

     the Fermi energy is     0.2794 ev

!    total energy              =     -23.80313405 Ry
     estimated scf accuracy    <          9.5E-09 Ry
     smearing contrib. (-TS)   =      -0.00007710 Ry
     internal energy E=F+TS    =     -23.80305695 Ry

     The total energy is F=E-TS. E is the sum of the following terms:
     one-electron contribution =    -626.00546407 Ry
     hartree contribution      =     316.63261932 Ry
     xc contribution           =     -20.80767125 Ry
     ewald contribution        =     306.37745906 Ry

     convergence has been achieved in  14 iterations

     negative rho (up, down):  8.499E-02 0.000E+00

     Forces acting on atoms (cartesian axes, Ry/au):

     atom    1 type  1   force =     0.00000000   -0.00000000  -26.35511057
     atom    2 type  1   force =     0.00000000    0.00000000  -26.35511057
     atom    3 type  1   force =    -0.00000000   -0.00000000   26.35511057
     atom    4 type  1   force =    -0.00000000   -0.00000000   26.35511057

     Total force =    52.710221     Total SCF correction =     0.000174


     Computing stress (Cartesian axis) and pressure


     negative rho (up, down):  8.499E-02 0.000E+00
          total   stress  (Ry/bohr**3)                   (kbar)     P=     3748.73
  -0.00310176   0.00000000  -0.00000000         -456.28        0.00       -0.00
   0.00000000  -0.00310176   0.00000000            0.00     -456.28        0.00
  -0.00000000   0.00000000   0.08265353           -0.00        0.00    12158.75


     Writing all to output data dir /run/media/rfa/SATA/Skripsi/DFT/dft-graphene/tmp/gr-aa-2L.save/ :
     XML data file, charge density, pseudopotentials, collected wavefunctions

     init_run     :      0.18s CPU      0.27s WALL (       1 calls)
     electrons    :      2.38s CPU      1.44s WALL (       1 calls)
     forces       :      0.01s CPU      0.01s WALL (       1 calls)
     stress       :      0.02s CPU      0.03s WALL (       1 calls)

     Called by init_run:
     wfcinit      :      0.05s CPU      0.04s WALL (       1 calls)
     potinit      :      0.00s CPU      0.00s WALL (       1 calls)
     hinit0       :      0.12s CPU      0.22s WALL (       1 calls)

     Called by electrons:
     c_bands      :      2.15s CPU      1.25s WALL (      14 calls)
     sum_band     :      0.20s CPU      0.15s WALL (      14 calls)
     v_of_rho     :      0.02s CPU      0.02s WALL (      15 calls)
     newd         :      0.01s CPU      0.01s WALL (      15 calls)
     mix_rho      :      0.01s CPU      0.01s WALL (      14 calls)

     Called by c_bands:
     init_us_2    :      0.04s CPU      0.03s WALL (     589 calls)
     cegterg      :      2.00s CPU      1.15s WALL (     266 calls)

     Called by *egterg:
     cdiaghg      :      0.48s CPU      0.27s WALL (    1494 calls)
     h_psi        :      1.26s CPU      0.74s WALL (    1513 calls)
     s_psi        :      0.04s CPU      0.02s WALL (    1513 calls)
     g_psi        :      0.02s CPU      0.01s WALL (    1228 calls)

     Called by h_psi:
     h_psi:calbec :      0.10s CPU      0.07s WALL (    1513 calls)
     vloc_psi     :      1.09s CPU      0.63s WALL (    1513 calls)
     add_vuspsi   :      0.03s CPU      0.02s WALL (    1513 calls)

     General routines
     calbec       :      0.11s CPU      0.08s WALL (    2102 calls)
     fft          :      0.11s CPU      0.21s WALL (     190 calls)
     ffts         :      0.00s CPU      0.00s WALL (      14 calls)
     fftw         :      1.02s CPU      0.60s WALL (   22538 calls)

     Parallel routines

     PWSCF        :      2.65s CPU      1.88s WALL


   This run was terminated on:   4: 5:58  22Apr2025            

=------------------------------------------------------------------------------=
   JOB DONE.
=------------------------------------------------------------------------------=
