
     Program PWSCF v.7.4.1 starts on 22Apr2025 at  4: 6:27 

     This program is part of the open-source Quantum ESPRESSO suite
     for quantum simulation of materials; please cite
         "P. Giannozzi et al., J. Phys.:Condens. Matter 21 395502 (2009);
         "P. Giannozzi et al., J. Phys.:Condens. Matter 29 465901 (2017);
         "P. Giannozzi et al., J. Chem. Phys. 152 154105 (2020);
          URL http://www.quantum-espresso.org", 
     in publications or presentations arising from this work. More details at
     http://www.quantum-espresso.org/quote

     Parallel version (MPI), running on     7 processors

     MPI processes distributed on     1 nodes
     12190 MiB available memory on the printing compute node when the environment starts

     Waiting for input...
     Reading input from standard input

     Current dimensions of program PWSCF are:
     Max number of different atomic species (ntypx) = 10
     Max number of k-points (npk) =  40000
     Max angular momentum in pseudopotentials (lmaxx) =  4

     R & G space division:  proc/nbgrp/npool/nimage =       7
     Subspace diagonalization in iterative solution of the eigenvalue problem:
     a serial algorithm will be used


     Parallelization info
     --------------------
     sticks:   dense  smooth     PW     G-vecs:    dense   smooth      PW
     Min          37      37     12                 3088     3088     566
     Max          38      38     13                 3095     3095     589
     Sum         265     265     85                21637    21637    3993

     Using Slab Decomposition



     bravais-lattice index     =            4
     lattice parameter (alat)  =       4.6561  a.u.
     unit-cell volume          =     532.1899 (a.u.)^3
     number of atoms/cell      =            4
     number of atomic types    =            1
     number of electrons       =        16.00
     number of Kohn-Sham states=           12
     kinetic-energy cutoff     =      45.0000  Ry
     charge density cutoff     =     180.0000  Ry
     scf convergence threshold =      1.0E-08
     mixing beta               =       0.7000
     number of iterations used =            8  plain     mixing
     Exchange-correlation= PBE
                           (   1   4   3   4   0   0   0)

     celldm(1)=   4.656107  celldm(2)=   0.000000  celldm(3)=   6.087896
     celldm(4)=   0.000000  celldm(5)=   0.000000  celldm(6)=   0.000000

     crystal axes: (cart. coord. in units of alat)
               a(1) = (   1.000000   0.000000   0.000000 )  
               a(2) = (  -0.500000   0.866025   0.000000 )  
               a(3) = (   0.000000   0.000000   6.087896 )  

     reciprocal axes: (cart. coord. in units 2 pi/alat)
               b(1) = (  1.000000  0.577350 -0.000000 )  
               b(2) = (  0.000000  1.154701  0.000000 )  
               b(3) = (  0.000000 -0.000000  0.164260 )  


     PseudoPot. # 1 for C  read from file:
     /run/media/rfa/SATA/Skripsi/DFT/dft-graphene/pseudo/C.pbe-n-rrkjus_psl.0.1.UPF
     MD5 check sum: 96a6a315177d77e6c95bf6fd3870f9e3
     Pseudo is Ultrasoft + core correction, Zval =  4.0
     Generated using &quot;atomic&quot; code by A. Dal Corso  v.6.3MaX
     Using radial grid of 1073 points,  4 beta functions with: 
                l(1) =   0
                l(2) =   0
                l(3) =   1
                l(4) =   1
     Q(r) pseudized with 0 coefficients 


     atomic species   valence    mass     pseudopotential
     C                 4.00    12.01070     C ( 1.00)

     12 Sym. Ops. (no inversion) found



   Cartesian axes

     site n.     atom                  positions (alat units)
         1        C      tau(   1) = (   0.0000000   0.5773503   3.0439478  )
         2        C      tau(   2) = (   0.5000000   0.2886751   3.0439478  )
         3        C      tau(   3) = (   0.0000000   0.5773503   3.2468777  )
         4        C      tau(   4) = (   0.5000000   0.2886751   3.2468777  )

     number of k points=    19  Marzari-Vanderbilt smearing, width (Ry)=  0.0200
                       cart. coord. in units 2pi/alat
        k(    1) = (   0.0000000   0.0000000   0.0000000), wk =   0.0138889
        k(    2) = (   0.0000000   0.0962250   0.0000000), wk =   0.0833333
        k(    3) = (   0.0000000   0.1924501   0.0000000), wk =   0.0833333
        k(    4) = (   0.0000000   0.2886751   0.0000000), wk =   0.0833333
        k(    5) = (   0.0000000   0.3849002   0.0000000), wk =   0.0833333
        k(    6) = (   0.0000000   0.4811252   0.0000000), wk =   0.0833333
        k(    7) = (   0.0000000  -0.5773503   0.0000000), wk =   0.0416667
        k(    8) = (   0.0833333   0.1443376   0.0000000), wk =   0.0833333
        k(    9) = (   0.0833333   0.2405626   0.0000000), wk =   0.1666667
        k(   10) = (   0.0833333   0.3367877   0.0000000), wk =   0.1666667
        k(   11) = (   0.0833333   0.4330127   0.0000000), wk =   0.1666667
        k(   12) = (   0.0833333   0.5292377   0.0000000), wk =   0.1666667
        k(   13) = (   0.1666667   0.2886751   0.0000000), wk =   0.0833333
        k(   14) = (   0.1666667   0.3849002   0.0000000), wk =   0.1666667
        k(   15) = (   0.1666667   0.4811252   0.0000000), wk =   0.1666667
        k(   16) = (   0.1666667   0.5773503   0.0000000), wk =   0.0833333
        k(   17) = (   0.2500000   0.4330127   0.0000000), wk =   0.0833333
        k(   18) = (   0.2500000   0.5292377   0.0000000), wk =   0.1666667
        k(   19) = (   0.3333333   0.5773503   0.0000000), wk =   0.0277778

     Dense  grid:    21637 G-vectors     FFT dimensions: (  20,  20, 125)

     Estimated max dynamical RAM per process >       6.23 MB

     Estimated total dynamical RAM >      43.58 MB

     Check: negative core charge=   -0.000014

     Initial potential from superposition of free atoms

     starting charge      15.9998, renormalised to      16.0000

     negative rho (up, down):  2.835E-04 0.000E+00
     Starting wfcs are   16 randomized atomic wfcs

     total cpu time spent up to now is        0.4 secs

     per-process dynamical memory:    10.2 Mb

     Self-consistent Calculation

     iteration #  1     ecut=    45.00 Ry     beta= 0.70
     Davidson diagonalization with overlap
     ethr =  1.00E-02,  avg # of iterations =  8.3

     negative rho (up, down):  5.309E-03 0.000E+00

     total cpu time spent up to now is        0.9 secs

     total energy              =     -22.65695611 Ry
     estimated scf accuracy    <       9.63570952 Ry

     iteration #  2     ecut=    45.00 Ry     beta= 0.70
     Davidson diagonalization with overlap
     c_bands:  3 eigenvalues not converged
     ethr =  1.00E-02,  avg # of iterations =  9.5

     total cpu time spent up to now is        1.3 secs

     total energy              =     -23.45327249 Ry
     estimated scf accuracy    <       7.00285470 Ry

     iteration #  3     ecut=    45.00 Ry     beta= 0.70
     Davidson diagonalization with overlap
     ethr =  1.00E-02,  avg # of iterations =  6.2

     total cpu time spent up to now is        1.5 secs

     total energy              =     -26.07029029 Ry
     estimated scf accuracy    <       0.43565204 Ry

     iteration #  4     ecut=    45.00 Ry     beta= 0.70
     Davidson diagonalization with overlap
     ethr =  2.72E-03,  avg # of iterations =  4.0

     total cpu time spent up to now is        1.7 secs

     total energy              =     -25.99169692 Ry
     estimated scf accuracy    <       0.19927414 Ry

     iteration #  5     ecut=    45.00 Ry     beta= 0.70
     Davidson diagonalization with overlap
     ethr =  1.25E-03,  avg # of iterations =  7.1

     negative rho (up, down):  3.868E-07 0.000E+00

     total cpu time spent up to now is        1.9 secs

     total energy              =     -26.02430166 Ry
     estimated scf accuracy    <       0.01282550 Ry

     iteration #  6     ecut=    45.00 Ry     beta= 0.70
     Davidson diagonalization with overlap
     c_bands:  1 eigenvalues not converged
     c_bands:  1 eigenvalues not converged
     c_bands:  1 eigenvalues not converged
     ethr =  8.02E-05,  avg # of iterations = 12.5

     negative rho (up, down):  2.270E-07 0.000E+00

     total cpu time spent up to now is        2.4 secs

     total energy              =     -26.04095808 Ry
     estimated scf accuracy    <       0.00579103 Ry

     iteration #  7     ecut=    45.00 Ry     beta= 0.70
     Davidson diagonalization with overlap
     ethr =  3.62E-05,  avg # of iterations =  3.9

     negative rho (up, down):  5.595E-06 0.000E+00

     total cpu time spent up to now is        2.6 secs

     total energy              =     -26.03894246 Ry
     estimated scf accuracy    <       0.00838393 Ry

     iteration #  8     ecut=    45.00 Ry     beta= 0.70
     Davidson diagonalization with overlap
     ethr =  3.62E-05,  avg # of iterations =  2.6

     negative rho (up, down):  6.236E-04 0.000E+00

     total cpu time spent up to now is        2.8 secs

     total energy              =     -26.03852424 Ry
     estimated scf accuracy    <       0.00197805 Ry

     iteration #  9     ecut=    45.00 Ry     beta= 0.70
     Davidson diagonalization with overlap
     ethr =  1.24E-05,  avg # of iterations =  6.4

     negative rho (up, down):  1.102E-03 0.000E+00

     total cpu time spent up to now is        3.0 secs

     total energy              =     -26.03890883 Ry
     estimated scf accuracy    <       0.00010966 Ry

     iteration # 10     ecut=    45.00 Ry     beta= 0.70
     Davidson diagonalization with overlap
     c_bands:  1 eigenvalues not converged
     ethr =  6.85E-07,  avg # of iterations =  9.5

     negative rho (up, down):  8.022E-04 0.000E+00

     total cpu time spent up to now is        3.5 secs

     total energy              =     -26.03908119 Ry
     estimated scf accuracy    <       0.00008949 Ry

     iteration # 11     ecut=    45.00 Ry     beta= 0.70
     Davidson diagonalization with overlap
     c_bands:  1 eigenvalues not converged
     ethr =  5.59E-07,  avg # of iterations =  2.6

     negative rho (up, down):  1.732E-03 0.000E+00

     total cpu time spent up to now is        3.7 secs

     total energy              =     -26.03918344 Ry
     estimated scf accuracy    <       0.00006834 Ry

     iteration # 12     ecut=    45.00 Ry     beta= 0.70
     Davidson diagonalization with overlap
     c_bands:  1 eigenvalues not converged
     ethr =  4.27E-07,  avg # of iterations =  7.0

     negative rho (up, down):  1.700E-03 0.000E+00

     total cpu time spent up to now is        4.0 secs

     total energy              =     -26.03897802 Ry
     estimated scf accuracy    <       0.00061031 Ry

     iteration # 13     ecut=    45.00 Ry     beta= 0.70
     Davidson diagonalization with overlap
     c_bands:  1 eigenvalues not converged
     ethr =  4.27E-07,  avg # of iterations =  5.7

     negative rho (up, down):  1.700E-03 0.000E+00

     total cpu time spent up to now is        4.2 secs

     total energy              =     -26.03904775 Ry
     estimated scf accuracy    <       0.00001717 Ry

     iteration # 14     ecut=    45.00 Ry     beta= 0.70
     Davidson diagonalization with overlap
     ethr =  1.07E-07,  avg # of iterations =  6.5

     negative rho (up, down):  1.700E-03 0.000E+00

     total cpu time spent up to now is        4.6 secs

     total energy              =     -26.03905455 Ry
     estimated scf accuracy    <       0.00005622 Ry

     iteration # 15     ecut=    45.00 Ry     beta= 0.70
     Davidson diagonalization with overlap
     ethr =  1.07E-07,  avg # of iterations =  3.3

     negative rho (up, down):  1.696E-03 0.000E+00

     total cpu time spent up to now is        4.8 secs

     total energy              =     -26.03906019 Ry
     estimated scf accuracy    <       0.00000516 Ry

     iteration # 16     ecut=    45.00 Ry     beta= 0.70
     Davidson diagonalization with overlap
     ethr =  3.23E-08,  avg # of iterations =  2.8

     negative rho (up, down):  1.700E-03 0.000E+00

     total cpu time spent up to now is        5.0 secs

     total energy              =     -26.03905986 Ry
     estimated scf accuracy    <       0.00000348 Ry

     iteration # 17     ecut=    45.00 Ry     beta= 0.70
     Davidson diagonalization with overlap
     ethr =  2.18E-08,  avg # of iterations =  3.6

     negative rho (up, down):  1.700E-03 0.000E+00

     total cpu time spent up to now is        5.2 secs

     total energy              =     -26.03906023 Ry
     estimated scf accuracy    <       0.00000058 Ry

     iteration # 18     ecut=    45.00 Ry     beta= 0.70
     Davidson diagonalization with overlap
     ethr =  3.64E-09,  avg # of iterations =  5.1

     negative rho (up, down):  1.700E-03 0.000E+00

     total cpu time spent up to now is        5.4 secs

     total energy              =     -26.03906088 Ry
     estimated scf accuracy    <       0.00000011 Ry

     iteration # 19     ecut=    45.00 Ry     beta= 0.70
     Davidson diagonalization with overlap
     ethr =  7.18E-10,  avg # of iterations =  4.7

     negative rho (up, down):  1.700E-03 0.000E+00

     total cpu time spent up to now is        5.7 secs

     total energy              =     -26.03906094 Ry
     estimated scf accuracy    <       0.00000046 Ry

     iteration # 20     ecut=    45.00 Ry     beta= 0.70
     Davidson diagonalization with overlap
     ethr =  7.18E-10,  avg # of iterations =  1.4

     negative rho (up, down):  1.701E-03 0.000E+00

     total cpu time spent up to now is        5.9 secs

     total energy              =     -26.03906089 Ry
     estimated scf accuracy    <       0.00000045 Ry

     iteration # 21     ecut=    45.00 Ry     beta= 0.70
     Davidson diagonalization with overlap
     ethr =  7.18E-10,  avg # of iterations =  1.0

     negative rho (up, down):  1.700E-03 0.000E+00

     total cpu time spent up to now is        6.0 secs

     total energy              =     -26.03906083 Ry
     estimated scf accuracy    <       0.00000033 Ry

     iteration # 22     ecut=    45.00 Ry     beta= 0.70
     Davidson diagonalization with overlap
     ethr =  7.18E-10,  avg # of iterations =  1.2

     negative rho (up, down):  1.700E-03 0.000E+00

     total cpu time spent up to now is        6.2 secs

     total energy              =     -26.03906077 Ry
     estimated scf accuracy    <       0.00000018 Ry

     iteration # 23     ecut=    45.00 Ry     beta= 0.70
     Davidson diagonalization with overlap
     ethr =  7.18E-10,  avg # of iterations =  2.9

     negative rho (up, down):  1.700E-03 0.000E+00

     total cpu time spent up to now is        6.4 secs

     total energy              =     -26.03906077 Ry
     estimated scf accuracy    <       0.00000003 Ry

     iteration # 24     ecut=    45.00 Ry     beta= 0.70
     Davidson diagonalization with overlap
     ethr =  1.93E-10,  avg # of iterations =  4.3

     negative rho (up, down):  1.700E-03 0.000E+00

     total cpu time spent up to now is        6.6 secs

     End of self-consistent calculation

          k = 0.0000 0.0000 0.0000 (  2629 PWs)   bands (ev):

   -24.5997 -23.7877 -23.7877 -16.1338 -11.0819 -11.0819  -5.2543   3.1922
     3.2747   3.2893   4.5914   5.5652

          k = 0.0000 0.0962 0.0000 (  2663 PWs)   bands (ev):

   -24.7152 -23.9888 -23.8805 -15.9593 -10.6602 -10.5091  -5.0966   2.3237
     3.5013   3.5126   4.8113   5.4138

          k = 0.0000 0.1925 0.0000 (  2691 PWs)   bands (ev):

   -25.2270 -24.4897 -23.8443 -15.4409  -9.5287  -8.9520  -4.6280   0.3565
     4.1787   4.1819   4.9604   5.4707

          k = 0.0000 0.2887 0.0000 (  2687 PWs)   bands (ev):

   -25.9637 -25.0878 -23.6089 -14.5610  -7.9925  -6.7469  -3.8574  -1.9818
     4.2050   5.2858   5.3130   6.5613

          k = 0.0000 0.3849 0.0000 (  2706 PWs)   bands (ev):

   -26.6288 -25.6141 -23.3253 -13.4087  -6.4255  -4.3456  -4.2718  -2.7349
     3.1765   6.7887   6.8841   8.0388

          k = 0.0000 0.4811 0.0000 (  2702 PWs)   bands (ev):

   -27.0715 -25.9639 -23.1033 -12.1183  -6.3906  -5.2286  -2.3885  -0.7368
     2.0479   5.3448   8.0563   8.4120

          k = 0.0000-0.5774 0.0000 (  2716 PWs)   bands (ev):

   -27.2260 -26.0861 -23.0189 -11.3791  -7.4129  -4.7766  -1.6879   1.1902
     1.8192   2.8564   7.8799   8.9491

          k = 0.0833 0.1443 0.0000 (  2687 PWs)   bands (ev):

   -25.0967 -24.1380 -24.0365 -15.6102  -9.8635  -9.4671  -4.7834   0.9543
     3.9537   3.9572   5.1132   5.2504

          k = 0.0833 0.2406 0.0000 (  2698 PWs)   bands (ev):

   -25.8231 -24.5946 -23.8694 -14.9086  -8.4866  -7.6443  -4.1656  -1.0762
     4.5175   4.8326   4.8604   6.1252

          k = 0.0833 0.3368 0.0000 (  2705 PWs)   bands (ev):

   -26.5595 -25.1156 -23.5852 -13.8872  -6.8901  -5.3425  -3.3391  -3.2413
     3.6390   6.0408   6.2117   7.4030

          k = 0.0833 0.4330 0.0000 (  2710 PWs)   bands (ev):

   -27.1220 -25.5323 -23.3167 -12.6320  -5.5115  -5.4607  -3.0710  -1.7981
     2.5451   6.2538   6.7169   7.9667

          k = 0.0833 0.5292 0.0000 (  2713 PWs)   bands (ev):

   -27.4220 -25.7595 -23.1553 -11.4592  -7.1772  -4.5974  -1.7727   0.5992
     1.5862   3.8417   5.8836   8.8248

          k = 0.1667 0.2887 0.0000 (  2703 PWs)   bands (ev):

   -26.5934 -24.6759 -23.8767 -14.0564  -6.9612  -5.8215  -3.4029  -2.8977
     3.8139   5.6999   5.9854   6.8704

          k = 0.1667 0.3849 0.0000 (  2709 PWs)   bands (ev):

   -27.2518 -24.9258 -23.7006 -12.9094  -5.3679  -4.8589  -3.7253  -2.2894
     2.8786   4.9713   7.5245   7.6240

          k = 0.1667 0.4811 0.0000 (  2736 PWs)   bands (ev):

   -27.6826 -25.1529 -23.5143 -11.6145  -6.7043  -4.1514  -1.9915  -0.4528
     1.8237   4.1060   5.0233   8.1597

          k = 0.1667 0.5774 0.0000 (  2725 PWs)   bands (ev):

   -27.8307 -25.2387 -23.4397 -10.8087  -7.7060  -3.6871  -1.2456   1.1196
     1.6669   2.8145   3.8069   7.8234

          k = 0.2500 0.4330 0.0000 (  2739 PWs)   bands (ev):

   -27.7824 -24.7642 -23.8091 -11.6807  -6.4548  -3.8309  -2.1856  -0.8871
     1.9614   3.4302   5.5792   7.7718

          k = 0.2500 0.5292 0.0000 (  2751 PWs)   bands (ev):

   -28.0640 -24.6996 -23.8430 -10.4271  -7.9132  -2.8413  -0.9637   0.9348
     1.0453   2.6110   3.4439   6.8384

          k = 0.3333 0.5774 0.0000 (  2763 PWs)   bands (ev):

   -28.1975 -24.2502 -24.2502  -9.1596  -9.1596  -2.2166   0.0664   0.0664
     2.0798   2.1804   2.1804   6.1710

     the Fermi energy is     1.2094 ev

!    total energy              =     -26.03906079 Ry
     estimated scf accuracy    <          2.7E-09 Ry
     smearing contrib. (-TS)   =       0.00017283 Ry
     internal energy E=F+TS    =     -26.03923362 Ry

     The total energy is F=E-TS. E is the sum of the following terms:
     one-electron contribution =    -631.15166341 Ry
     hartree contribution      =     319.94801104 Ry
     xc contribution           =     -21.21304017 Ry
     ewald contribution        =     306.37745891 Ry

     convergence has been achieved in  24 iterations

     negative rho (up, down):  1.700E-03 0.000E+00

     Forces acting on atoms (cartesian axes, Ry/au):

     atom    1 type  1   force =     0.00000000    0.00000000  -22.96996363
     atom    2 type  1   force =    -0.00000000   -0.00000000  -22.96996363
     atom    3 type  1   force =     0.00000000    0.00000000   22.96996363
     atom    4 type  1   force =     0.00000000   -0.00000000   22.96996363

     Total force =    45.939927     Total SCF correction =     0.000087


     Computing stress (Cartesian axis) and pressure


     negative rho (up, down):  1.700E-03 0.000E+00
          total   stress  (Ry/bohr**3)                   (kbar)     P=     4845.90
   0.00937102   0.00000000  -0.00000000         1378.52        0.00       -0.00
   0.00000000   0.00937102   0.00000000            0.00     1378.52        0.00
  -0.00000000   0.00000000   0.08008316           -0.00        0.00    11780.64


     Writing all to output data dir /run/media/rfa/SATA/Skripsi/DFT/dft-graphene/tmp/gr-aa-2L.save/ :
     XML data file, charge density, pseudopotentials, collected wavefunctions

     init_run     :      0.29s CPU      0.37s WALL (       1 calls)
     electrons    :     11.23s CPU      6.22s WALL (       1 calls)
     forces       :      0.05s CPU      0.03s WALL (       1 calls)
     stress       :      0.14s CPU      0.09s WALL (       1 calls)

     Called by init_run:
     wfcinit      :      0.13s CPU      0.07s WALL (       1 calls)
     potinit      :      0.00s CPU      0.01s WALL (       1 calls)
     hinit0       :      0.14s CPU      0.27s WALL (       1 calls)

     Called by electrons:
     c_bands      :      9.64s CPU      5.31s WALL (      24 calls)
     sum_band     :      1.20s CPU      0.65s WALL (      24 calls)
     v_of_rho     :      0.16s CPU      0.10s WALL (      25 calls)
     newd         :      0.11s CPU      0.11s WALL (      25 calls)
     mix_rho      :      0.08s CPU      0.04s WALL (      24 calls)

     Called by c_bands:
     init_us_2    :      0.26s CPU      0.14s WALL (     969 calls)
     cegterg      :      9.11s CPU      4.97s WALL (     456 calls)

     Called by *egterg:
     cdiaghg      :      1.15s CPU      0.62s WALL (    2779 calls)
     h_psi        :      6.25s CPU      3.44s WALL (    2798 calls)
     s_psi        :      0.18s CPU      0.10s WALL (    2798 calls)
     g_psi        :      0.09s CPU      0.05s WALL (    2323 calls)

     Called by h_psi:
     h_psi:calbec :      0.81s CPU      0.44s WALL (    2798 calls)
     vloc_psi     :      5.04s CPU      2.76s WALL (    2798 calls)
     add_vuspsi   :      0.28s CPU      0.16s WALL (    2798 calls)

     General routines
     calbec       :      0.92s CPU      0.50s WALL (    3577 calls)
     fft          :      0.18s CPU      0.29s WALL (     300 calls)
     ffts         :      0.01s CPU      0.00s WALL (      24 calls)
     fftw         :      4.64s CPU      2.52s WALL (   42030 calls)

     Parallel routines

     PWSCF        :     11.79s CPU      6.95s WALL


   This run was terminated on:   4: 6:34  22Apr2025            

=------------------------------------------------------------------------------=
   JOB DONE.
=------------------------------------------------------------------------------=
