
     Program PWSCF v.7.4.1 starts on 22Apr2025 at  4: 6:13 

     This program is part of the open-source Quantum ESPRESSO suite
     for quantum simulation of materials; please cite
         "P. Giannozzi et al., J. Phys.:Condens. Matter 21 395502 (2009);
         "P. Giannozzi et al., J. Phys.:Condens. Matter 29 465901 (2017);
         "P. Giannozzi et al., J. Chem. Phys. 152 154105 (2020);
          URL http://www.quantum-espresso.org", 
     in publications or presentations arising from this work. More details at
     http://www.quantum-espresso.org/quote

     Parallel version (MPI), running on     7 processors

     MPI processes distributed on     1 nodes
     12172 MiB available memory on the printing compute node when the environment starts

     Waiting for input...
     Reading input from standard input

     Current dimensions of program PWSCF are:
     Max number of different atomic species (ntypx) = 10
     Max number of k-points (npk) =  40000
     Max angular momentum in pseudopotentials (lmaxx) =  4

     R & G space division:  proc/nbgrp/npool/nimage =       7
     Subspace diagonalization in iterative solution of the eigenvalue problem:
     a serial algorithm will be used


     Parallelization info
     --------------------
     sticks:   dense  smooth     PW     G-vecs:    dense   smooth      PW
     Min          29      29      9                 2121     2121     397
     Max          31      31     13                 2125     2125     402
     Sum         211     211     73                14861    14861    2797

     Using Slab Decomposition



     bravais-lattice index     =            4
     lattice parameter (alat)  =       4.6561  a.u.
     unit-cell volume          =     532.1899 (a.u.)^3
     number of atoms/cell      =            4
     number of atomic types    =            1
     number of electrons       =        16.00
     number of Kohn-Sham states=           12
     kinetic-energy cutoff     =      35.0000  Ry
     charge density cutoff     =     140.0000  Ry
     scf convergence threshold =      1.0E-08
     mixing beta               =       0.7000
     number of iterations used =            8  plain     mixing
     Exchange-correlation= PBE
                           (   1   4   3   4   0   0   0)

     celldm(1)=   4.656107  celldm(2)=   0.000000  celldm(3)=   6.087896
     celldm(4)=   0.000000  celldm(5)=   0.000000  celldm(6)=   0.000000

     crystal axes: (cart. coord. in units of alat)
               a(1) = (   1.000000   0.000000   0.000000 )  
               a(2) = (  -0.500000   0.866025   0.000000 )  
               a(3) = (   0.000000   0.000000   6.087896 )  

     reciprocal axes: (cart. coord. in units 2 pi/alat)
               b(1) = (  1.000000  0.577350 -0.000000 )  
               b(2) = (  0.000000  1.154701  0.000000 )  
               b(3) = (  0.000000 -0.000000  0.164260 )  


     PseudoPot. # 1 for C  read from file:
     /run/media/rfa/SATA/Skripsi/DFT/dft-graphene/pseudo/C.pbe-n-rrkjus_psl.0.1.UPF
     MD5 check sum: 96a6a315177d77e6c95bf6fd3870f9e3
     Pseudo is Ultrasoft + core correction, Zval =  4.0
     Generated using &quot;atomic&quot; code by A. Dal Corso  v.6.3MaX
     Using radial grid of 1073 points,  4 beta functions with: 
                l(1) =   0
                l(2) =   0
                l(3) =   1
                l(4) =   1
     Q(r) pseudized with 0 coefficients 


     atomic species   valence    mass     pseudopotential
     C                 4.00    12.01070     C ( 1.00)

     12 Sym. Ops. (no inversion) found



   Cartesian axes

     site n.     atom                  positions (alat units)
         1        C      tau(   1) = (   0.0000000   0.5773503   3.0439478  )
         2        C      tau(   2) = (   0.5000000   0.2886751   3.0439478  )
         3        C      tau(   3) = (   0.0000000   0.5773503   3.2468777  )
         4        C      tau(   4) = (   0.5000000   0.2886751   3.2468777  )

     number of k points=    19  Marzari-Vanderbilt smearing, width (Ry)=  0.0200
                       cart. coord. in units 2pi/alat
        k(    1) = (   0.0000000   0.0000000   0.0000000), wk =   0.0138889
        k(    2) = (   0.0000000   0.0962250   0.0000000), wk =   0.0833333
        k(    3) = (   0.0000000   0.1924501   0.0000000), wk =   0.0833333
        k(    4) = (   0.0000000   0.2886751   0.0000000), wk =   0.0833333
        k(    5) = (   0.0000000   0.3849002   0.0000000), wk =   0.0833333
        k(    6) = (   0.0000000   0.4811252   0.0000000), wk =   0.0833333
        k(    7) = (   0.0000000  -0.5773503   0.0000000), wk =   0.0416667
        k(    8) = (   0.0833333   0.1443376   0.0000000), wk =   0.0833333
        k(    9) = (   0.0833333   0.2405626   0.0000000), wk =   0.1666667
        k(   10) = (   0.0833333   0.3367877   0.0000000), wk =   0.1666667
        k(   11) = (   0.0833333   0.4330127   0.0000000), wk =   0.1666667
        k(   12) = (   0.0833333   0.5292377   0.0000000), wk =   0.1666667
        k(   13) = (   0.1666667   0.2886751   0.0000000), wk =   0.0833333
        k(   14) = (   0.1666667   0.3849002   0.0000000), wk =   0.1666667
        k(   15) = (   0.1666667   0.4811252   0.0000000), wk =   0.1666667
        k(   16) = (   0.1666667   0.5773503   0.0000000), wk =   0.0833333
        k(   17) = (   0.2500000   0.4330127   0.0000000), wk =   0.0833333
        k(   18) = (   0.2500000   0.5292377   0.0000000), wk =   0.1666667
        k(   19) = (   0.3333333   0.5773503   0.0000000), wk =   0.0277778

     Dense  grid:    14861 G-vectors     FFT dimensions: (  18,  18, 108)

     Estimated max dynamical RAM per process >       4.35 MB

     Estimated total dynamical RAM >      30.43 MB

     Check: negative core charge=   -0.000020

     Initial potential from superposition of free atoms

     starting charge      15.9998, renormalised to      16.0000

     negative rho (up, down):  1.316E-03 0.000E+00
     Starting wfcs are   16 randomized atomic wfcs

     total cpu time spent up to now is        0.6 secs

     per-process dynamical memory:     9.3 Mb

     Self-consistent Calculation

     iteration #  1     ecut=    35.00 Ry     beta= 0.70
     Davidson diagonalization with overlap
     ethr =  1.00E-02,  avg # of iterations =  7.1

     negative rho (up, down):  2.743E-02 0.000E+00

     total cpu time spent up to now is        0.9 secs

     total energy              =     -22.65607105 Ry
     estimated scf accuracy    <       9.18216081 Ry

     iteration #  2     ecut=    35.00 Ry     beta= 0.70
     Davidson diagonalization with overlap
     c_bands:  1 eigenvalues not converged
     ethr =  1.00E-02,  avg # of iterations = 10.2

     negative rho (up, down):  4.147E-07 0.000E+00

     total cpu time spent up to now is        1.3 secs

     total energy              =     -21.78548845 Ry
     estimated scf accuracy    <      10.50282841 Ry

     iteration #  3     ecut=    35.00 Ry     beta= 0.70
     Davidson diagonalization with overlap
     ethr =  1.00E-02,  avg # of iterations =  8.3

     negative rho (up, down):  1.037E-06 0.000E+00

     total cpu time spent up to now is        1.5 secs

     total energy              =     -25.98825676 Ry
     estimated scf accuracy    <       0.72338218 Ry

     iteration #  4     ecut=    35.00 Ry     beta= 0.70
     Davidson diagonalization with overlap
     ethr =  4.52E-03,  avg # of iterations =  2.4

     negative rho (up, down):  8.382E-06 0.000E+00

     total cpu time spent up to now is        1.7 secs

     total energy              =     -25.80192036 Ry
     estimated scf accuracy    <       0.33229294 Ry

     iteration #  5     ecut=    35.00 Ry     beta= 0.70
     Davidson diagonalization with overlap
     ethr =  2.08E-03,  avg # of iterations =  3.6

     negative rho (up, down):  2.344E-05 0.000E+00

     total cpu time spent up to now is        1.9 secs

     total energy              =     -25.80104005 Ry
     estimated scf accuracy    <       0.05835310 Ry

     iteration #  6     ecut=    35.00 Ry     beta= 0.70
     Davidson diagonalization with overlap
     ethr =  3.65E-04,  avg # of iterations =  7.2

     negative rho (up, down):  8.785E-05 0.000E+00

     total cpu time spent up to now is        2.1 secs

     total energy              =     -25.80168198 Ry
     estimated scf accuracy    <       0.02325661 Ry

     iteration #  7     ecut=    35.00 Ry     beta= 0.70
     Davidson diagonalization with overlap
     ethr =  1.45E-04,  avg # of iterations =  5.3

     negative rho (up, down):  9.719E-03 0.000E+00

     total cpu time spent up to now is        2.3 secs

     total energy              =     -25.79416673 Ry
     estimated scf accuracy    <       0.01324522 Ry

     iteration #  8     ecut=    35.00 Ry     beta= 0.70
     Davidson diagonalization with overlap
     ethr =  8.28E-05,  avg # of iterations =  8.4

     negative rho (up, down):  6.679E-03 0.000E+00

     total cpu time spent up to now is        2.5 secs

     total energy              =     -25.79612825 Ry
     estimated scf accuracy    <       0.00009029 Ry

     iteration #  9     ecut=    35.00 Ry     beta= 0.70
     Davidson diagonalization with overlap
     ethr =  5.64E-07,  avg # of iterations = 10.9

     negative rho (up, down):  1.259E-02 0.000E+00

     total cpu time spent up to now is        3.0 secs

     total energy              =     -25.79657226 Ry
     estimated scf accuracy    <       0.00004769 Ry

     iteration # 10     ecut=    35.00 Ry     beta= 0.70
     Davidson diagonalization with overlap
     c_bands:  1 eigenvalues not converged
     c_bands:  1 eigenvalues not converged
     c_bands:  1 eigenvalues not converged
     ethr =  2.98E-07,  avg # of iterations = 10.1

     negative rho (up, down):  8.505E-03 0.000E+00

     total cpu time spent up to now is        3.3 secs

     total energy              =     -25.79649128 Ry
     estimated scf accuracy    <       0.00011321 Ry

     iteration # 11     ecut=    35.00 Ry     beta= 0.70
     Davidson diagonalization with overlap
     c_bands:  1 eigenvalues not converged
     c_bands:  1 eigenvalues not converged
     c_bands:  1 eigenvalues not converged
     ethr =  2.98E-07,  avg # of iterations =  8.5

     negative rho (up, down):  8.692E-03 0.000E+00

     total cpu time spent up to now is        3.5 secs

     total energy              =     -25.79649535 Ry
     estimated scf accuracy    <       0.00000037 Ry

     iteration # 12     ecut=    35.00 Ry     beta= 0.70
     Davidson diagonalization with overlap
     ethr =  2.29E-09,  avg # of iterations =  8.2

     negative rho (up, down):  8.692E-03 0.000E+00

     total cpu time spent up to now is        3.8 secs

     total energy              =     -25.79649658 Ry
     estimated scf accuracy    <       0.00000019 Ry

     iteration # 13     ecut=    35.00 Ry     beta= 0.70
     Davidson diagonalization with overlap
     ethr =  1.17E-09,  avg # of iterations =  1.8

     negative rho (up, down):  8.695E-03 0.000E+00

     total cpu time spent up to now is        4.0 secs

     total energy              =     -25.79649658 Ry
     estimated scf accuracy    <       0.00000003 Ry

     iteration # 14     ecut=    35.00 Ry     beta= 0.70
     Davidson diagonalization with overlap
     ethr =  1.83E-10,  avg # of iterations =  4.2

     negative rho (up, down):  8.695E-03 0.000E+00

     total cpu time spent up to now is        4.2 secs

     End of self-consistent calculation

          k = 0.0000 0.0000 0.0000 (  1907 PWs)   bands (ev):

   -24.9120 -24.1767 -24.1767 -15.8530 -11.4500 -11.4500  -5.5871   2.8098
     2.9697   4.2074   4.6791   5.0234

          k = 0.0000 0.0962 0.0000 (  1889 PWs)   bands (ev):

   -25.0329 -24.3746 -24.2597 -15.7084 -11.0276 -10.8723  -5.4321   3.0369
     3.1924   3.6465   4.4280   4.8771

          k = 0.0000 0.1925 0.0000 (  1891 PWs)   bands (ev):

   -25.5638 -24.8723 -24.2064 -15.1779  -9.9002  -9.3077  -4.9730   1.3008
     3.7180   3.8682   4.4383   5.0893

          k = 0.0000 0.2887 0.0000 (  1870 PWs)   bands (ev):

   -26.3104 -25.4677 -23.9639 -14.2549  -8.3704  -7.0913  -4.2220  -1.2504
     3.7084   4.8529   4.9915   6.1840

          k = 0.0000 0.3849 0.0000 (  1848 PWs)   bands (ev):

   -26.9795 -25.9910 -23.6789 -13.0563  -6.8100  -4.5809  -3.7083  -3.1409
     2.7163   6.4316   6.5445   7.6686

          k = 0.0000 0.4811 0.0000 (  1838 PWs)   bands (ev):

   -27.4234 -26.3399 -23.4563 -11.7424  -5.8805  -5.6207  -2.6992  -1.1599
     1.6272   5.0176   7.7728   8.3737

          k = 0.0000-0.5774 0.0000 (  1852 PWs)   bands (ev):

   -27.5773 -26.4624 -23.3732 -11.0133  -6.9578  -5.1710  -2.0270   0.7565
     1.3776   2.5891   7.5973   8.8754

          k = 0.0833 0.1443 0.0000 (  1893 PWs)   bands (ev):

   -25.4341 -24.5198 -24.3992 -15.3295 -10.2337  -9.8270  -5.1252   2.0324
     3.4912   3.6429   4.5858   4.8687

          k = 0.0833 0.2406 0.0000 (  1862 PWs)   bands (ev):

   -26.1726 -24.9700 -24.2238 -14.6239  -8.8605  -7.9932  -4.5214  -0.2668
     4.0096   4.3989   4.5330   5.7463

          k = 0.0833 0.3368 0.0000 (  1859 PWs)   bands (ev):

   -26.9133 -25.4887 -23.9379 -13.5620  -7.2717  -5.6706  -3.6253  -2.6811
     3.1610   5.7527   5.8104   7.0571

          k = 0.0833 0.4330 0.0000 (  1850 PWs)   bands (ev):

   -27.4778 -25.9046 -23.6709 -12.2775  -5.8489  -4.9892  -3.3656  -2.2299
     2.1051   6.1460   6.3865   7.5341

          k = 0.0833 0.5292 0.0000 (  1844 PWs)   bands (ev):

   -27.7779 -26.1309 -23.5096 -11.0640  -6.7147  -4.9917  -2.1043   0.1723
     1.1835   3.5194   5.7667   8.5505

          k = 0.1667 0.2887 0.0000 (  1865 PWs)   bands (ev):

   -26.9494 -25.0500 -24.2265 -13.7696  -7.3423  -6.1534  -3.7801  -2.2111
     3.3283   5.4803   5.5365   6.5553

          k = 0.1667 0.3849 0.0000 (  1860 PWs)   bands (ev):

   -27.6099 -25.2978 -24.0537 -12.5728  -5.7565  -4.2622  -4.0261  -2.7074
     2.4237   4.8094   7.0881   7.2842

          k = 0.1667 0.4811 0.0000 (  1855 PWs)   bands (ev):

   -28.0409 -25.5218 -23.8697 -11.2464  -6.1816  -4.5452  -2.3002  -0.8826
     1.4054   3.9382   4.6794   7.9026

          k = 0.1667 0.5774 0.0000 (  1848 PWs)   bands (ev):

   -28.1897 -25.6068 -23.7955 -10.3827  -7.2187  -4.0852  -1.5861   0.7035
     1.2313   2.5098   3.6457   7.5619

          k = 0.2500 0.4330 0.0000 (  1856 PWs)   bands (ev):

   -28.1407 -25.1324 -24.1635 -11.3100  -5.8974  -4.2290  -2.4761  -1.3274
     1.5360   3.2279   5.2215   7.5325

          k = 0.2500 0.5292 0.0000 (  1855 PWs)   bands (ev):

   -28.4233 -25.0656 -24.2018 -10.0104  -7.4272  -3.2457  -1.2924   0.5074
     0.6558   2.3950   3.0712   6.6031

          k = 0.3333 0.5774 0.0000 (  1860 PWs)   bands (ev):

   -28.5570 -24.6122 -24.6122  -8.7077  -8.7077  -2.6247  -0.2878  -0.2878
     1.7710   1.7710   1.8425   5.9544

     the Fermi energy is     1.1233 ev

!    total energy              =     -25.79649660 Ry
     estimated scf accuracy    <          3.5E-09 Ry
     smearing contrib. (-TS)   =       0.00004530 Ry
     internal energy E=F+TS    =     -25.79654190 Ry

     The total energy is F=E-TS. E is the sum of the following terms:
     one-electron contribution =    -630.51374015 Ry
     hartree contribution      =     319.50041684 Ry
     xc contribution           =     -21.16067765 Ry
     ewald contribution        =     306.37745907 Ry

     convergence has been achieved in  14 iterations

     negative rho (up, down):  8.695E-03 0.000E+00

     Forces acting on atoms (cartesian axes, Ry/au):

     atom    1 type  1   force =     0.00000000   -0.00000000  -24.03906481
     atom    2 type  1   force =     0.00000000    0.00000000  -24.03906481
     atom    3 type  1   force =     0.00000000    0.00000000   24.03906481
     atom    4 type  1   force =     0.00000000    0.00000000   24.03906481

     Total force =    48.078130     Total SCF correction =     0.000135


     Computing stress (Cartesian axis) and pressure


     negative rho (up, down):  8.695E-03 0.000E+00
          total   stress  (Ry/bohr**3)                   (kbar)     P=     4847.83
   0.00875406   0.00000000   0.00000000         1287.77        0.00        0.00
   0.00000000   0.00875406  -0.00000000            0.00     1287.77       -0.00
   0.00000000   0.00000000   0.08135661            0.00        0.00    11967.97


     Writing all to output data dir /run/media/rfa/SATA/Skripsi/DFT/dft-graphene/tmp/gr-aa-2L.save/ :
     XML data file, charge density, pseudopotentials, collected wavefunctions

     init_run     :      0.35s CPU      0.49s WALL (       1 calls)
     electrons    :      6.69s CPU      3.64s WALL (       1 calls)
     forces       :      0.03s CPU      0.02s WALL (       1 calls)
     stress       :      0.09s CPU      0.06s WALL (       1 calls)

     Called by init_run:
     wfcinit      :      0.13s CPU      0.07s WALL (       1 calls)
     potinit      :      0.01s CPU      0.01s WALL (       1 calls)
     hinit0       :      0.20s CPU      0.40s WALL (       1 calls)

     Called by electrons:
     c_bands      :      5.88s CPU      3.19s WALL (      14 calls)
     sum_band     :      0.62s CPU      0.34s WALL (      14 calls)
     v_of_rho     :      0.08s CPU      0.04s WALL (      15 calls)
     newd         :      0.06s CPU      0.04s WALL (      15 calls)
     mix_rho      :      0.03s CPU      0.01s WALL (      14 calls)

     Called by c_bands:
     init_us_2    :      0.10s CPU      0.05s WALL (     589 calls)
     cegterg      :      5.66s CPU      3.05s WALL (     266 calls)

     Called by *egterg:
     cdiaghg      :      0.82s CPU      0.44s WALL (    2092 calls)
     h_psi        :      4.18s CPU      2.25s WALL (    2111 calls)
     s_psi        :      0.08s CPU      0.04s WALL (    2111 calls)
     g_psi        :      0.04s CPU      0.02s WALL (    1826 calls)

     Called by h_psi:
     h_psi:calbec :      0.31s CPU      0.16s WALL (    2111 calls)
     vloc_psi     :      3.67s CPU      1.97s WALL (    2111 calls)
     add_vuspsi   :      0.15s CPU      0.07s WALL (    2111 calls)

     General routines
     calbec       :      0.37s CPU      0.20s WALL (    2700 calls)
     fft          :      0.23s CPU      0.41s WALL (     190 calls)
     ffts         :      0.00s CPU      0.00s WALL (      14 calls)
     fftw         :      3.68s CPU      1.96s WALL (   27916 calls)

     Parallel routines

     PWSCF        :      7.24s CPU      4.40s WALL


   This run was terminated on:   4: 6:18  22Apr2025            

=------------------------------------------------------------------------------=
   JOB DONE.
=------------------------------------------------------------------------------=
