
     Program PWSCF v.7.4.1 starts on 22Apr2025 at  4: 6: 3 

     This program is part of the open-source Quantum ESPRESSO suite
     for quantum simulation of materials; please cite
         "P. Giannozzi et al., J. Phys.:Condens. Matter 21 395502 (2009);
         "P. Giannozzi et al., J. Phys.:Condens. Matter 29 465901 (2017);
         "P. Giannozzi et al., J. Chem. Phys. 152 154105 (2020);
          URL http://www.quantum-espresso.org", 
     in publications or presentations arising from this work. More details at
     http://www.quantum-espresso.org/quote

     Parallel version (MPI), running on     7 processors

     MPI processes distributed on     1 nodes
     12168 MiB available memory on the printing compute node when the environment starts

     Waiting for input...
     Reading input from standard input

     Current dimensions of program PWSCF are:
     Max number of different atomic species (ntypx) = 10
     Max number of k-points (npk) =  40000
     Max angular momentum in pseudopotentials (lmaxx) =  4

     R & G space division:  proc/nbgrp/npool/nimage =       7
     Subspace diagonalization in iterative solution of the eigenvalue problem:
     a serial algorithm will be used


     Parallelization info
     --------------------
     sticks:   dense  smooth     PW     G-vecs:    dense   smooth      PW
     Min          21      21      7                 1345     1345     271
     Max          22      22      8                 1372     1372     290
     Sum         151     151     55                 9519     9519    1981

     Using Slab Decomposition



     bravais-lattice index     =            4
     lattice parameter (alat)  =       4.6561  a.u.
     unit-cell volume          =     532.1899 (a.u.)^3
     number of atoms/cell      =            4
     number of atomic types    =            1
     number of electrons       =        16.00
     number of Kohn-Sham states=           12
     kinetic-energy cutoff     =      26.0000  Ry
     charge density cutoff     =     104.0000  Ry
     scf convergence threshold =      1.0E-08
     mixing beta               =       0.7000
     number of iterations used =            8  plain     mixing
     Exchange-correlation= PBE
                           (   1   4   3   4   0   0   0)

     celldm(1)=   4.656107  celldm(2)=   0.000000  celldm(3)=   6.087896
     celldm(4)=   0.000000  celldm(5)=   0.000000  celldm(6)=   0.000000

     crystal axes: (cart. coord. in units of alat)
               a(1) = (   1.000000   0.000000   0.000000 )  
               a(2) = (  -0.500000   0.866025   0.000000 )  
               a(3) = (   0.000000   0.000000   6.087896 )  

     reciprocal axes: (cart. coord. in units 2 pi/alat)
               b(1) = (  1.000000  0.577350 -0.000000 )  
               b(2) = (  0.000000  1.154701  0.000000 )  
               b(3) = (  0.000000 -0.000000  0.164260 )  


     PseudoPot. # 1 for C  read from file:
     /run/media/rfa/SATA/Skripsi/DFT/dft-graphene/pseudo/C.pbe-n-rrkjus_psl.0.1.UPF
     MD5 check sum: 96a6a315177d77e6c95bf6fd3870f9e3
     Pseudo is Ultrasoft + core correction, Zval =  4.0
     Generated using &quot;atomic&quot; code by A. Dal Corso  v.6.3MaX
     Using radial grid of 1073 points,  4 beta functions with: 
                l(1) =   0
                l(2) =   0
                l(3) =   1
                l(4) =   1
     Q(r) pseudized with 0 coefficients 


     atomic species   valence    mass     pseudopotential
     C                 4.00    12.01070     C ( 1.00)

     12 Sym. Ops. (no inversion) found



   Cartesian axes

     site n.     atom                  positions (alat units)
         1        C      tau(   1) = (   0.0000000   0.5773503   3.0439478  )
         2        C      tau(   2) = (   0.5000000   0.2886751   3.0439478  )
         3        C      tau(   3) = (   0.0000000   0.5773503   3.2468777  )
         4        C      tau(   4) = (   0.5000000   0.2886751   3.2468777  )

     number of k points=    19  Marzari-Vanderbilt smearing, width (Ry)=  0.0200
                       cart. coord. in units 2pi/alat
        k(    1) = (   0.0000000   0.0000000   0.0000000), wk =   0.0138889
        k(    2) = (   0.0000000   0.0962250   0.0000000), wk =   0.0833333
        k(    3) = (   0.0000000   0.1924501   0.0000000), wk =   0.0833333
        k(    4) = (   0.0000000   0.2886751   0.0000000), wk =   0.0833333
        k(    5) = (   0.0000000   0.3849002   0.0000000), wk =   0.0833333
        k(    6) = (   0.0000000   0.4811252   0.0000000), wk =   0.0833333
        k(    7) = (   0.0000000  -0.5773503   0.0000000), wk =   0.0416667
        k(    8) = (   0.0833333   0.1443376   0.0000000), wk =   0.0833333
        k(    9) = (   0.0833333   0.2405626   0.0000000), wk =   0.1666667
        k(   10) = (   0.0833333   0.3367877   0.0000000), wk =   0.1666667
        k(   11) = (   0.0833333   0.4330127   0.0000000), wk =   0.1666667
        k(   12) = (   0.0833333   0.5292377   0.0000000), wk =   0.1666667
        k(   13) = (   0.1666667   0.2886751   0.0000000), wk =   0.0833333
        k(   14) = (   0.1666667   0.3849002   0.0000000), wk =   0.1666667
        k(   15) = (   0.1666667   0.4811252   0.0000000), wk =   0.1666667
        k(   16) = (   0.1666667   0.5773503   0.0000000), wk =   0.0833333
        k(   17) = (   0.2500000   0.4330127   0.0000000), wk =   0.0833333
        k(   18) = (   0.2500000   0.5292377   0.0000000), wk =   0.1666667
        k(   19) = (   0.3333333   0.5773503   0.0000000), wk =   0.0277778

     Dense  grid:     9519 G-vectors     FFT dimensions: (  15,  15,  96)

     Estimated max dynamical RAM per process >       2.85 MB

     Estimated total dynamical RAM >      19.95 MB

     Check: negative core charge=   -0.000071

     Initial potential from superposition of free atoms

     starting charge      15.9998, renormalised to      16.0000

     negative rho (up, down):  6.464E-03 0.000E+00
     Starting wfcs are   16 randomized atomic wfcs

     total cpu time spent up to now is        0.4 secs

     per-process dynamical memory:     8.5 Mb

     Self-consistent Calculation

     iteration #  1     ecut=    26.00 Ry     beta= 0.70
     Davidson diagonalization with overlap
     ethr =  1.00E-02,  avg # of iterations =  6.1

     negative rho (up, down):  1.157E-01 0.000E+00

     total cpu time spent up to now is        0.6 secs

     total energy              =     -22.32428796 Ry
     estimated scf accuracy    <       8.21654786 Ry

     iteration #  2     ecut=    26.00 Ry     beta= 0.70
     Davidson diagonalization with overlap
     ethr =  1.00E-02,  avg # of iterations =  8.9

     negative rho (up, down):  7.576E-04 0.000E+00

     total cpu time spent up to now is        0.7 secs

     total energy              =     -18.73479938 Ry
     estimated scf accuracy    <      17.46048063 Ry

     iteration #  3     ecut=    26.00 Ry     beta= 0.70
     Davidson diagonalization with overlap
     ethr =  1.00E-02,  avg # of iterations =  9.3

     negative rho (up, down):  1.012E-03 0.000E+00

     total cpu time spent up to now is        0.9 secs

     total energy              =     -25.30263333 Ry
     estimated scf accuracy    <       0.92766062 Ry

     iteration #  4     ecut=    26.00 Ry     beta= 0.70
     Davidson diagonalization with overlap
     ethr =  5.80E-03,  avg # of iterations =  1.9

     negative rho (up, down):  3.627E-03 0.000E+00

     total cpu time spent up to now is        1.0 secs

     total energy              =     -25.06330105 Ry
     estimated scf accuracy    <       0.48920588 Ry

     iteration #  5     ecut=    26.00 Ry     beta= 0.70
     Davidson diagonalization with overlap
     ethr =  3.06E-03,  avg # of iterations =  2.2

     negative rho (up, down):  6.076E-03 0.000E+00

     total cpu time spent up to now is        1.1 secs

     total energy              =     -25.03949513 Ry
     estimated scf accuracy    <       0.15428069 Ry

     iteration #  6     ecut=    26.00 Ry     beta= 0.70
     Davidson diagonalization with overlap
     ethr =  9.64E-04,  avg # of iterations =  3.8

     negative rho (up, down):  3.379E-03 0.000E+00

     total cpu time spent up to now is        1.2 secs

     total energy              =     -25.07603686 Ry
     estimated scf accuracy    <       0.09191487 Ry

     iteration #  7     ecut=    26.00 Ry     beta= 0.70
     Davidson diagonalization with overlap
     ethr =  5.74E-04,  avg # of iterations =  1.3

     negative rho (up, down):  3.844E-02 0.000E+00

     total cpu time spent up to now is        1.2 secs

     total energy              =     -24.96900396 Ry
     estimated scf accuracy    <       0.12904460 Ry

     iteration #  8     ecut=    26.00 Ry     beta= 0.70
     Davidson diagonalization with overlap
     ethr =  5.74E-04,  avg # of iterations =  7.7

     negative rho (up, down):  3.428E-02 0.000E+00

     total cpu time spent up to now is        1.4 secs

     total energy              =     -24.98285374 Ry
     estimated scf accuracy    <       0.00267421 Ry

     iteration #  9     ecut=    26.00 Ry     beta= 0.70
     Davidson diagonalization with overlap
     ethr =  1.67E-05,  avg # of iterations =  5.3

     negative rho (up, down):  3.433E-02 0.000E+00

     total cpu time spent up to now is        1.5 secs

     total energy              =     -24.98305427 Ry
     estimated scf accuracy    <       0.00453003 Ry

     iteration # 10     ecut=    26.00 Ry     beta= 0.70
     Davidson diagonalization with overlap
     ethr =  1.67E-05,  avg # of iterations =  1.0

     negative rho (up, down):  4.656E-02 0.000E+00

     total cpu time spent up to now is        1.6 secs

     total energy              =     -24.98060042 Ry
     estimated scf accuracy    <       0.00429575 Ry

     iteration # 11     ecut=    26.00 Ry     beta= 0.70
     Davidson diagonalization with overlap
     ethr =  1.67E-05,  avg # of iterations =  5.6

     negative rho (up, down):  5.217E-02 0.000E+00

     total cpu time spent up to now is        1.7 secs

     total energy              =     -24.98056557 Ry
     estimated scf accuracy    <       0.00097907 Ry

     iteration # 12     ecut=    26.00 Ry     beta= 0.70
     Davidson diagonalization with overlap
     c_bands:  1 eigenvalues not converged
     ethr =  6.12E-06,  avg # of iterations =  7.5

     negative rho (up, down):  5.218E-02 0.000E+00

     total cpu time spent up to now is        1.8 secs

     total energy              =     -24.98049492 Ry
     estimated scf accuracy    <       0.00100847 Ry

     iteration # 13     ecut=    26.00 Ry     beta= 0.70
     Davidson diagonalization with overlap
     ethr =  6.12E-06,  avg # of iterations =  1.2

     negative rho (up, down):  5.214E-02 0.000E+00

     total cpu time spent up to now is        1.9 secs

     total energy              =     -24.98049258 Ry
     estimated scf accuracy    <       0.00073652 Ry

     iteration # 14     ecut=    26.00 Ry     beta= 0.70
     Davidson diagonalization with overlap
     ethr =  4.60E-06,  avg # of iterations =  1.0

     negative rho (up, down):  5.204E-02 0.000E+00

     total cpu time spent up to now is        2.0 secs

     total energy              =     -24.98031267 Ry
     estimated scf accuracy    <       0.00071812 Ry

     iteration # 15     ecut=    26.00 Ry     beta= 0.70
     Davidson diagonalization with overlap
     ethr =  4.49E-06,  avg # of iterations =  1.1

     negative rho (up, down):  5.196E-02 0.000E+00

     total cpu time spent up to now is        2.0 secs

     total energy              =     -24.98028933 Ry
     estimated scf accuracy    <       0.00024052 Ry

     iteration # 16     ecut=    26.00 Ry     beta= 0.70
     Davidson diagonalization with overlap
     ethr =  1.50E-06,  avg # of iterations =  2.1

     negative rho (up, down):  5.196E-02 0.000E+00

     total cpu time spent up to now is        2.1 secs

     total energy              =     -24.98030271 Ry
     estimated scf accuracy    <       0.00009805 Ry

     iteration # 17     ecut=    26.00 Ry     beta= 0.70
     Davidson diagonalization with overlap
     ethr =  6.13E-07,  avg # of iterations =  1.0

     negative rho (up, down):  5.183E-02 0.000E+00

     total cpu time spent up to now is        2.2 secs

     total energy              =     -24.98025137 Ry
     estimated scf accuracy    <       0.00009442 Ry

     iteration # 18     ecut=    26.00 Ry     beta= 0.70
     Davidson diagonalization with overlap
     ethr =  5.90E-07,  avg # of iterations =  3.3

     negative rho (up, down):  5.173E-02 0.000E+00

     total cpu time spent up to now is        2.3 secs

     total energy              =     -24.98027877 Ry
     estimated scf accuracy    <       0.00000927 Ry

     iteration # 19     ecut=    26.00 Ry     beta= 0.70
     Davidson diagonalization with overlap
     ethr =  5.79E-08,  avg # of iterations =  2.3

     negative rho (up, down):  5.161E-02 0.000E+00

     total cpu time spent up to now is        2.4 secs

     total energy              =     -24.98028471 Ry
     estimated scf accuracy    <       0.00000437 Ry

     iteration # 20     ecut=    26.00 Ry     beta= 0.70
     Davidson diagonalization with overlap
     ethr =  2.73E-08,  avg # of iterations =  2.3

     negative rho (up, down):  5.160E-02 0.000E+00

     total cpu time spent up to now is        2.5 secs

     total energy              =     -24.98028363 Ry
     estimated scf accuracy    <       0.00001428 Ry

     iteration # 21     ecut=    26.00 Ry     beta= 0.70
     Davidson diagonalization with overlap
     ethr =  2.73E-08,  avg # of iterations =  1.0

     negative rho (up, down):  5.163E-02 0.000E+00

     total cpu time spent up to now is        2.5 secs

     total energy              =     -24.98028206 Ry
     estimated scf accuracy    <       0.00000857 Ry

     iteration # 22     ecut=    26.00 Ry     beta= 0.70
     Davidson diagonalization with overlap
     ethr =  2.73E-08,  avg # of iterations =  1.1

     negative rho (up, down):  5.165E-02 0.000E+00

     total cpu time spent up to now is        2.6 secs

     total energy              =     -24.98028149 Ry
     estimated scf accuracy    <       0.00000494 Ry

     iteration # 23     ecut=    26.00 Ry     beta= 0.70
     Davidson diagonalization with overlap
     ethr =  2.73E-08,  avg # of iterations =  1.0

     negative rho (up, down):  5.166E-02 0.000E+00

     total cpu time spent up to now is        2.7 secs

     total energy              =     -24.98028124 Ry
     estimated scf accuracy    <       0.00000352 Ry

     iteration # 24     ecut=    26.00 Ry     beta= 0.70
     Davidson diagonalization with overlap
     ethr =  2.20E-08,  avg # of iterations =  1.0

     negative rho (up, down):  5.167E-02 0.000E+00

     total cpu time spent up to now is        2.8 secs

     total energy              =     -24.98028093 Ry
     estimated scf accuracy    <       0.00000289 Ry

     iteration # 25     ecut=    26.00 Ry     beta= 0.70
     Davidson diagonalization with overlap
     ethr =  1.80E-08,  avg # of iterations =  1.0

     negative rho (up, down):  5.172E-02 0.000E+00

     total cpu time spent up to now is        2.8 secs

     total energy              =     -24.98027978 Ry
     estimated scf accuracy    <       0.00000215 Ry

     iteration # 26     ecut=    26.00 Ry     beta= 0.70
     Davidson diagonalization with overlap
     ethr =  1.35E-08,  avg # of iterations =  1.1

     negative rho (up, down):  5.171E-02 0.000E+00

     total cpu time spent up to now is        2.9 secs

     total energy              =     -24.98027958 Ry
     estimated scf accuracy    <       0.00000062 Ry

     iteration # 27     ecut=    26.00 Ry     beta= 0.70
     Davidson diagonalization with overlap
     ethr =  3.86E-09,  avg # of iterations =  2.2

     negative rho (up, down):  5.171E-02 0.000E+00

     total cpu time spent up to now is        3.0 secs

     total energy              =     -24.98027982 Ry
     estimated scf accuracy    <       0.00000016 Ry

     iteration # 28     ecut=    26.00 Ry     beta= 0.70
     Davidson diagonalization with overlap
     ethr =  1.03E-09,  avg # of iterations =  2.3

     negative rho (up, down):  5.170E-02 0.000E+00

     total cpu time spent up to now is        3.1 secs

     total energy              =     -24.98027986 Ry
     estimated scf accuracy    <       0.00000012 Ry

     iteration # 29     ecut=    26.00 Ry     beta= 0.70
     Davidson diagonalization with overlap
     ethr =  7.29E-10,  avg # of iterations =  1.0

     negative rho (up, down):  5.170E-02 0.000E+00

     total cpu time spent up to now is        3.2 secs

     total energy              =     -24.98027985 Ry
     estimated scf accuracy    <       0.00000006 Ry

     iteration # 30     ecut=    26.00 Ry     beta= 0.70
     Davidson diagonalization with overlap
     ethr =  3.95E-10,  avg # of iterations =  2.0

     negative rho (up, down):  5.170E-02 0.000E+00

     total cpu time spent up to now is        3.3 secs

     End of self-consistent calculation

          k = 0.0000 0.0000 0.0000 (  1199 PWs)   bands (ev):

   -25.7736 -25.1874 -25.1874 -14.8537 -12.2878 -12.2878  -6.4494   2.1597
     2.4647   3.5911   3.8470   4.7324

          k = 0.0000 0.0962 0.0000 (  1187 PWs)   bands (ev):

   -25.8979 -25.3799 -25.2540 -14.5009 -11.8456 -11.6824  -6.2872   2.3875
     2.6983   3.7285   3.8140   4.9686

          k = 0.0000 0.1925 0.0000 (  1187 PWs)   bands (ev):

   -26.4445 -25.8644 -25.1478 -13.9967 -10.7113 -10.0779  -5.8520   3.0693
     3.2721   3.3628   3.5256   4.4766

          k = 0.0000 0.2887 0.0000 (  1183 PWs)   bands (ev):

   -27.1965 -26.4452 -24.8708 -13.0008  -9.1684  -7.8437  -5.1347   0.5759
     2.5780   4.2060   4.5157   5.5749

          k = 0.0000 0.3849 0.0000 (  1188 PWs)   bands (ev):

   -27.8771 -26.9634 -24.5532 -11.7332  -7.6219  -5.3177  -4.1201  -2.1943
     1.6305   5.7887   6.0994   7.0529

          k = 0.0000 0.4811 0.0000 (  1198 PWs)   bands (ev):

   -28.3210 -27.3132 -24.3759 -10.2567  -6.3619  -4.5828  -3.5422  -2.1323
     0.5923   4.2219   7.0685   7.7282

          k = 0.0000-0.5774 0.0000 (  1194 PWs)   bands (ev):

   -28.4554 -27.4260 -24.2965  -9.4969  -5.8127  -5.7618  -2.9479  -0.2996
     0.4487   1.8413   6.8888   8.2317

          k = 0.0833 0.1443 0.0000 (  1189 PWs)   bands (ev):

   -26.3272 -25.5085 -25.3543 -14.1497 -11.0528 -10.6042  -5.9956   2.8424
     3.1508   3.4159   4.2557   4.4637

          k = 0.0833 0.2406 0.0000 (  1190 PWs)   bands (ev):

   -27.0820 -25.9368 -25.1489 -13.3857  -9.6517  -8.7787  -5.4211   1.8007
     2.8431   3.7516   4.0569   5.1361

          k = 0.0833 0.3368 0.0000 (  1184 PWs)   bands (ev):

   -27.8230 -26.4417 -24.8318 -12.2588  -8.0654  -6.4000  -4.5657  -0.8935
     2.0502   5.1116   5.3944   6.4368

          k = 0.0833 0.4330 0.0000 (  1190 PWs)   bands (ev):

   -28.3900 -26.8578 -24.5683 -10.8508  -6.5938  -4.1393  -3.4307  -3.2147
     1.0445   5.6276   5.8181   6.8956

          k = 0.0833 0.5292 0.0000 (  1200 PWs)   bands (ev):

   -28.6893 -27.0939 -24.4338  -9.4843  -5.7197  -5.4175  -2.9882  -0.8099
     0.1962   2.7049   5.4282   7.8996

          k = 0.1667 0.2887 0.0000 (  1184 PWs)   bands (ev):

   -27.8712 -25.9858 -25.1271 -12.4453  -8.0502  -6.9171  -4.7174  -0.2953
     2.1896   4.8844   5.1127   5.9925

          k = 0.1667 0.3849 0.0000 (  1178 PWs)   bands (ev):

   -28.5251 -26.2210 -24.9341 -11.1325  -6.4415  -4.7553  -3.6731  -2.4320
     1.3404   4.4060   6.4495   6.5236

          k = 0.1667 0.4811 0.0000 (  1198 PWs)   bands (ev):

   -28.9691 -26.4699 -24.7667  -9.7279  -5.3124  -4.5348  -3.1402  -1.8514
     0.3797   3.5341   3.8563   7.2632

          k = 0.1667 0.5774 0.0000 (  1196 PWs)   bands (ev):

   -29.1173 -26.5482 -24.7004  -8.7364  -5.7492  -4.8378  -2.4796  -0.3247
     0.2925   1.7032   3.2582   6.9022

          k = 0.2500 0.4330 0.0000 (  1180 PWs)   bands (ev):

   -29.0679 -26.0574 -25.0363  -9.8489  -4.9223  -4.0405  -3.2694  -2.3109
     0.5423   2.7162   4.4015   6.9187

          k = 0.2500 0.5292 0.0000 (  1200 PWs)   bands (ev):

   -29.3574 -25.9903 -25.0932  -8.4505  -5.7659  -3.9750  -2.1881  -0.4831
    -0.3209   1.8390   2.1865   5.9606

          k = 0.3333 0.5774 0.0000 (  1212 PWs)   bands (ev):

   -29.4980 -25.5396 -25.5396  -7.0634  -7.0634  -3.5001  -1.2280  -1.2280
     0.8238   0.8238   1.2097   5.3164

     the Fermi energy is     0.4159 ev

!    total energy              =     -24.98027984 Ry
     estimated scf accuracy    <          2.6E-09 Ry
     smearing contrib. (-TS)   =      -0.00109822 Ry
     internal energy E=F+TS    =     -24.97918162 Ry

     The total energy is F=E-TS. E is the sum of the following terms:
     one-electron contribution =    -628.61363829 Ry
     hartree contribution      =     318.27951942 Ry
     xc contribution           =     -21.02252181 Ry
     ewald contribution        =     306.37745906 Ry

     convergence has been achieved in  30 iterations

     negative rho (up, down):  5.170E-02 0.000E+00

     Forces acting on atoms (cartesian axes, Ry/au):

     atom    1 type  1   force =     0.00000000   -0.00000000  -25.52765763
     atom    2 type  1   force =     0.00000000    0.00000000  -25.52765763
     atom    3 type  1   force =     0.00000000    0.00000000   25.52765763
     atom    4 type  1   force =     0.00000000    0.00000000   25.52765763

     Total force =    51.055315     Total SCF correction =     0.000116


     Computing stress (Cartesian axis) and pressure


     negative rho (up, down):  5.170E-02 0.000E+00
          total   stress  (Ry/bohr**3)                   (kbar)     P=     4607.95
   0.00546035  -0.00000000   0.00000000          803.24       -0.00        0.00
  -0.00000000   0.00546035  -0.00000000           -0.00      803.24       -0.00
   0.00000000  -0.00000000   0.08305185            0.00       -0.00    12217.35


     Writing all to output data dir /run/media/rfa/SATA/Skripsi/DFT/dft-graphene/tmp/gr-aa-2L.save/ :
     XML data file, charge density, pseudopotentials, collected wavefunctions

     init_run     :      0.21s CPU      0.34s WALL (       1 calls)
     electrons    :      4.97s CPU      2.88s WALL (       1 calls)
     forces       :      0.02s CPU      0.01s WALL (       1 calls)
     stress       :      0.07s CPU      0.04s WALL (       1 calls)

     Called by init_run:
     wfcinit      :      0.06s CPU      0.04s WALL (       1 calls)
     potinit      :      0.00s CPU      0.00s WALL (       1 calls)
     hinit0       :      0.14s CPU      0.28s WALL (       1 calls)

     Called by electrons:
     c_bands      :      4.04s CPU      2.36s WALL (      30 calls)
     sum_band     :      0.69s CPU      0.39s WALL (      30 calls)
     v_of_rho     :      0.09s CPU      0.05s WALL (      31 calls)
     newd         :      0.07s CPU      0.04s WALL (      31 calls)
     mix_rho      :      0.04s CPU      0.02s WALL (      30 calls)

     Called by c_bands:
     init_us_2    :      0.12s CPU      0.07s WALL (    1197 calls)
     cegterg      :      3.70s CPU      2.13s WALL (     570 calls)

     Called by *egterg:
     cdiaghg      :      0.71s CPU      0.40s WALL (    2249 calls)
     h_psi        :      2.51s CPU      1.45s WALL (    2268 calls)
     s_psi        :      0.07s CPU      0.04s WALL (    2268 calls)
     g_psi        :      0.03s CPU      0.02s WALL (    1679 calls)

     Called by h_psi:
     h_psi:calbec :      0.25s CPU      0.14s WALL (    2268 calls)
     vloc_psi     :      2.13s CPU      1.23s WALL (    2268 calls)
     add_vuspsi   :      0.08s CPU      0.04s WALL (    2268 calls)

     General routines
     calbec       :      0.35s CPU      0.19s WALL (    3161 calls)
     fft          :      0.17s CPU      0.29s WALL (     366 calls)
     ffts         :      0.00s CPU      0.00s WALL (      30 calls)
     fftw         :      2.14s CPU      1.21s WALL (   41352 calls)

     Parallel routines

     PWSCF        :      5.34s CPU      3.42s WALL


   This run was terminated on:   4: 6: 7  22Apr2025            

=------------------------------------------------------------------------------=
   JOB DONE.
=------------------------------------------------------------------------------=
