
     Program PWSCF v.7.4.1 starts on 22Apr2025 at  4: 6: 8 

     This program is part of the open-source Quantum ESPRESSO suite
     for quantum simulation of materials; please cite
         "P. Giannozzi et al., J. Phys.:Condens. Matter 21 395502 (2009);
         "P. Giannozzi et al., J. Phys.:Condens. Matter 29 465901 (2017);
         "P. Giannozzi et al., J. Chem. Phys. 152 154105 (2020);
          URL http://www.quantum-espresso.org", 
     in publications or presentations arising from this work. More details at
     http://www.quantum-espresso.org/quote

     Parallel version (MPI), running on     7 processors

     MPI processes distributed on     1 nodes
     12164 MiB available memory on the printing compute node when the environment starts

     Waiting for input...
     Reading input from standard input

     Current dimensions of program PWSCF are:
     Max number of different atomic species (ntypx) = 10
     Max number of k-points (npk) =  40000
     Max angular momentum in pseudopotentials (lmaxx) =  4

     R & G space division:  proc/nbgrp/npool/nimage =       7
     Subspace diagonalization in iterative solution of the eigenvalue problem:
     a serial algorithm will be used


     Parallelization info
     --------------------
     sticks:   dense  smooth     PW     G-vecs:    dense   smooth      PW
     Min          26      26      8                 1676     1676     330
     Max          27      27     10                 1681     1681     342
     Sum         187     187     61                11745    11745    2349

     Using Slab Decomposition



     bravais-lattice index     =            4
     lattice parameter (alat)  =       4.6561  a.u.
     unit-cell volume          =     532.1899 (a.u.)^3
     number of atoms/cell      =            4
     number of atomic types    =            1
     number of electrons       =        16.00
     number of Kohn-Sham states=           12
     kinetic-energy cutoff     =      30.0000  Ry
     charge density cutoff     =     120.0000  Ry
     scf convergence threshold =      1.0E-08
     mixing beta               =       0.7000
     number of iterations used =            8  plain     mixing
     Exchange-correlation= PBE
                           (   1   4   3   4   0   0   0)

     celldm(1)=   4.656107  celldm(2)=   0.000000  celldm(3)=   6.087896
     celldm(4)=   0.000000  celldm(5)=   0.000000  celldm(6)=   0.000000

     crystal axes: (cart. coord. in units of alat)
               a(1) = (   1.000000   0.000000   0.000000 )  
               a(2) = (  -0.500000   0.866025   0.000000 )  
               a(3) = (   0.000000   0.000000   6.087896 )  

     reciprocal axes: (cart. coord. in units 2 pi/alat)
               b(1) = (  1.000000  0.577350 -0.000000 )  
               b(2) = (  0.000000  1.154701  0.000000 )  
               b(3) = (  0.000000 -0.000000  0.164260 )  


     PseudoPot. # 1 for C  read from file:
     /run/media/rfa/SATA/Skripsi/DFT/dft-graphene/pseudo/C.pbe-n-rrkjus_psl.0.1.UPF
     MD5 check sum: 96a6a315177d77e6c95bf6fd3870f9e3
     Pseudo is Ultrasoft + core correction, Zval =  4.0
     Generated using &quot;atomic&quot; code by A. Dal Corso  v.6.3MaX
     Using radial grid of 1073 points,  4 beta functions with: 
                l(1) =   0
                l(2) =   0
                l(3) =   1
                l(4) =   1
     Q(r) pseudized with 0 coefficients 


     atomic species   valence    mass     pseudopotential
     C                 4.00    12.01070     C ( 1.00)

     12 Sym. Ops. (no inversion) found



   Cartesian axes

     site n.     atom                  positions (alat units)
         1        C      tau(   1) = (   0.0000000   0.5773503   3.0439478  )
         2        C      tau(   2) = (   0.5000000   0.2886751   3.0439478  )
         3        C      tau(   3) = (   0.0000000   0.5773503   3.2468777  )
         4        C      tau(   4) = (   0.5000000   0.2886751   3.2468777  )

     number of k points=    19  Marzari-Vanderbilt smearing, width (Ry)=  0.0200
                       cart. coord. in units 2pi/alat
        k(    1) = (   0.0000000   0.0000000   0.0000000), wk =   0.0138889
        k(    2) = (   0.0000000   0.0962250   0.0000000), wk =   0.0833333
        k(    3) = (   0.0000000   0.1924501   0.0000000), wk =   0.0833333
        k(    4) = (   0.0000000   0.2886751   0.0000000), wk =   0.0833333
        k(    5) = (   0.0000000   0.3849002   0.0000000), wk =   0.0833333
        k(    6) = (   0.0000000   0.4811252   0.0000000), wk =   0.0833333
        k(    7) = (   0.0000000  -0.5773503   0.0000000), wk =   0.0416667
        k(    8) = (   0.0833333   0.1443376   0.0000000), wk =   0.0833333
        k(    9) = (   0.0833333   0.2405626   0.0000000), wk =   0.1666667
        k(   10) = (   0.0833333   0.3367877   0.0000000), wk =   0.1666667
        k(   11) = (   0.0833333   0.4330127   0.0000000), wk =   0.1666667
        k(   12) = (   0.0833333   0.5292377   0.0000000), wk =   0.1666667
        k(   13) = (   0.1666667   0.2886751   0.0000000), wk =   0.0833333
        k(   14) = (   0.1666667   0.3849002   0.0000000), wk =   0.1666667
        k(   15) = (   0.1666667   0.4811252   0.0000000), wk =   0.1666667
        k(   16) = (   0.1666667   0.5773503   0.0000000), wk =   0.0833333
        k(   17) = (   0.2500000   0.4330127   0.0000000), wk =   0.0833333
        k(   18) = (   0.2500000   0.5292377   0.0000000), wk =   0.1666667
        k(   19) = (   0.3333333   0.5773503   0.0000000), wk =   0.0277778

     Dense  grid:    11745 G-vectors     FFT dimensions: (  18,  18, 100)

     Estimated max dynamical RAM per process >       3.53 MB

     Estimated total dynamical RAM >      24.74 MB

     Check: negative core charge=   -0.000017

     Initial potential from superposition of free atoms

     starting charge      15.9998, renormalised to      16.0000

     negative rho (up, down):  3.795E-03 0.000E+00
     Starting wfcs are   16 randomized atomic wfcs

     total cpu time spent up to now is        0.5 secs

     per-process dynamical memory:     9.0 Mb

     Self-consistent Calculation

     iteration #  1     ecut=    30.00 Ry     beta= 0.70
     Davidson diagonalization with overlap
     ethr =  1.00E-02,  avg # of iterations =  6.9

     negative rho (up, down):  6.729E-02 0.000E+00

     total cpu time spent up to now is        0.8 secs

     total energy              =     -22.63072751 Ry
     estimated scf accuracy    <       8.65615900 Ry

     iteration #  2     ecut=    30.00 Ry     beta= 0.70
     Davidson diagonalization with overlap
     ethr =  1.00E-02,  avg # of iterations =  9.5

     negative rho (up, down):  4.929E-05 0.000E+00

     total cpu time spent up to now is        1.1 secs

     total energy              =     -20.30330266 Ry
     estimated scf accuracy    <      13.67962884 Ry

     iteration #  3     ecut=    30.00 Ry     beta= 0.70
     Davidson diagonalization with overlap
     c_bands:  1 eigenvalues not converged
     ethr =  1.00E-02,  avg # of iterations =  8.6

     negative rho (up, down):  5.123E-05 0.000E+00

     total cpu time spent up to now is        1.4 secs

     total energy              =     -25.74605429 Ry
     estimated scf accuracy    <       0.85109373 Ry

     iteration #  4     ecut=    30.00 Ry     beta= 0.70
     Davidson diagonalization with overlap
     ethr =  5.32E-03,  avg # of iterations =  1.8

     negative rho (up, down):  2.500E-04 0.000E+00

     total cpu time spent up to now is        1.5 secs

     total energy              =     -25.50235520 Ry
     estimated scf accuracy    <       0.43315170 Ry

     iteration #  5     ecut=    30.00 Ry     beta= 0.70
     Davidson diagonalization with overlap
     ethr =  2.71E-03,  avg # of iterations =  2.3

     negative rho (up, down):  5.045E-04 0.000E+00

     total cpu time spent up to now is        1.6 secs

     total energy              =     -25.50528355 Ry
     estimated scf accuracy    <       0.08268255 Ry

     iteration #  6     ecut=    30.00 Ry     beta= 0.70
     Davidson diagonalization with overlap
     ethr =  5.17E-04,  avg # of iterations =  5.0

     negative rho (up, down):  4.679E-04 0.000E+00

     total cpu time spent up to now is        1.8 secs

     total energy              =     -25.51159831 Ry
     estimated scf accuracy    <       0.04883566 Ry

     iteration #  7     ecut=    30.00 Ry     beta= 0.70
     Davidson diagonalization with overlap
     ethr =  3.05E-04,  avg # of iterations =  1.8

     negative rho (up, down):  1.041E-02 0.000E+00

     total cpu time spent up to now is        1.9 secs

     total energy              =     -25.47355983 Ry
     estimated scf accuracy    <       0.04916253 Ry

     iteration #  8     ecut=    30.00 Ry     beta= 0.70
     Davidson diagonalization with overlap
     ethr =  3.05E-04,  avg # of iterations =  8.6

     negative rho (up, down):  2.177E-02 0.000E+00

     total cpu time spent up to now is        2.1 secs

     total energy              =     -25.48075641 Ry
     estimated scf accuracy    <       0.00612304 Ry

     iteration #  9     ecut=    30.00 Ry     beta= 0.70
     Davidson diagonalization with overlap
     c_bands:  1 eigenvalues not converged
     c_bands:  1 eigenvalues not converged
     ethr =  3.83E-05,  avg # of iterations =  9.6

     negative rho (up, down):  1.665E-02 0.000E+00

     total cpu time spent up to now is        2.4 secs

     total energy              =     -25.48000498 Ry
     estimated scf accuracy    <       0.00612220 Ry

     iteration # 10     ecut=    30.00 Ry     beta= 0.70
     Davidson diagonalization with overlap
     ethr =  3.83E-05,  avg # of iterations =  2.6

     negative rho (up, down):  2.094E-02 0.000E+00

     total cpu time spent up to now is        2.5 secs

     total energy              =     -25.47984429 Ry
     estimated scf accuracy    <       0.00303406 Ry

     iteration # 11     ecut=    30.00 Ry     beta= 0.70
     Davidson diagonalization with overlap
     ethr =  1.90E-05,  avg # of iterations =  1.7

     negative rho (up, down):  2.263E-02 0.000E+00

     total cpu time spent up to now is        2.6 secs

     total energy              =     -25.47967968 Ry
     estimated scf accuracy    <       0.00203682 Ry

     iteration # 12     ecut=    30.00 Ry     beta= 0.70
     Davidson diagonalization with overlap
     ethr =  1.27E-05,  avg # of iterations =  1.7

     negative rho (up, down):  2.299E-02 0.000E+00

     total cpu time spent up to now is        2.8 secs

     total energy              =     -25.47915733 Ry
     estimated scf accuracy    <       0.00135031 Ry

     iteration # 13     ecut=    30.00 Ry     beta= 0.70
     Davidson diagonalization with overlap
     ethr =  8.44E-06,  avg # of iterations =  3.5

     negative rho (up, down):  2.317E-02 0.000E+00

     total cpu time spent up to now is        2.9 secs

     total energy              =     -25.47929420 Ry
     estimated scf accuracy    <       0.00008054 Ry

     iteration # 14     ecut=    30.00 Ry     beta= 0.70
     Davidson diagonalization with overlap
     c_bands:  1 eigenvalues not converged
     c_bands:  1 eigenvalues not converged
     ethr =  5.03E-07,  avg # of iterations =  7.7

     negative rho (up, down):  2.311E-02 0.000E+00

     total cpu time spent up to now is        3.1 secs

     total energy              =     -25.47933538 Ry
     estimated scf accuracy    <       0.00000192 Ry

     iteration # 15     ecut=    30.00 Ry     beta= 0.70
     Davidson diagonalization with overlap
     c_bands:  1 eigenvalues not converged
     ethr =  1.20E-08,  avg # of iterations =  6.2

     negative rho (up, down):  2.318E-02 0.000E+00

     total cpu time spent up to now is        3.4 secs

     total energy              =     -25.47933192 Ry
     estimated scf accuracy    <       0.00002053 Ry

     iteration # 16     ecut=    30.00 Ry     beta= 0.70
     Davidson diagonalization with overlap
     c_bands:  1 eigenvalues not converged
     ethr =  1.20E-08,  avg # of iterations =  4.9

     negative rho (up, down):  2.316E-02 0.000E+00

     total cpu time spent up to now is        3.6 secs

     total energy              =     -25.47933526 Ry
     estimated scf accuracy    <       0.00000015 Ry

     iteration # 17     ecut=    30.00 Ry     beta= 0.70
     Davidson diagonalization with overlap
     ethr =  9.53E-10,  avg # of iterations =  5.6

     negative rho (up, down):  2.315E-02 0.000E+00

     total cpu time spent up to now is        3.8 secs

     total energy              =     -25.47933516 Ry
     estimated scf accuracy    <       0.00000097 Ry

     iteration # 18     ecut=    30.00 Ry     beta= 0.70
     Davidson diagonalization with overlap
     ethr =  9.53E-10,  avg # of iterations =  4.1

     negative rho (up, down):  2.315E-02 0.000E+00

     total cpu time spent up to now is        4.0 secs

     total energy              =     -25.47933528 Ry
     estimated scf accuracy    <       0.00000004 Ry

     iteration # 19     ecut=    30.00 Ry     beta= 0.70
     Davidson diagonalization with overlap
     ethr =  2.29E-10,  avg # of iterations =  3.2

     negative rho (up, down):  2.315E-02 0.000E+00

     total cpu time spent up to now is        4.1 secs

     End of self-consistent calculation

          k = 0.0000 0.0000 0.0000 (  1435 PWs)   bands (ev):

   -25.2668 -24.5727 -24.5727 -15.3634 -11.8381 -11.8381  -5.9733   2.5085
     2.7255   3.9262   4.4277   4.9494

          k = 0.0000 0.0962 0.0000 (  1419 PWs)   bands (ev):

   -25.3920 -24.7697 -24.6486 -15.1778 -11.4149 -11.2395  -5.8207   2.7358
     2.9519   4.1473   4.2947   5.1725

          k = 0.0000 0.1925 0.0000 (  1451 PWs)   bands (ev):

   -25.9421 -25.2766 -24.6058 -14.6771 -10.2896  -9.6959  -5.3698   2.6483
     3.4172   3.6321   3.8664   4.8098

          k = 0.0000 0.2887 0.0000 (  1473 PWs)   bands (ev):

   -26.7015 -25.8787 -24.3631 -13.7743  -8.7641  -7.4830  -4.6379  -0.2026
     3.1622   4.5525   4.7586   5.9067

          k = 0.0000 0.3849 0.0000 (  1477 PWs)   bands (ev):

   -27.3730 -26.4039 -24.0764 -12.5343  -7.2061  -4.9480  -3.5964  -2.8521
     2.1991   6.1325   6.3314   7.3903

          k = 0.0000 0.4811 0.0000 (  1483 PWs)   bands (ev):

   -27.8163 -26.7555 -23.8543 -11.1303  -6.0217  -5.2519  -3.0698  -1.6259
     1.1447   4.6501   7.4544   8.0624

          k = 0.0000-0.5774 0.0000 (  1488 PWs)   bands (ev):

   -27.9710 -26.8798 -23.7710 -10.2260  -6.3112  -5.5816  -2.4269   0.2716
     0.9033   2.2775   7.2787   8.5622

          k = 0.0833 0.1443 0.0000 (  1444 PWs)   bands (ev):

   -25.8077 -24.9379 -24.7880 -14.8269 -10.6127 -10.2116  -5.5194   3.1903
     3.4025   3.5508   4.0119   4.5890

          k = 0.0833 0.2406 0.0000 (  1470 PWs)   bands (ev):

   -26.5586 -25.3869 -24.6172 -14.1509  -9.2593  -8.3834  -4.9301   0.8419
     3.4452   4.0985   4.2988   5.4683

          k = 0.0833 0.3368 0.0000 (  1485 PWs)   bands (ev):

   -27.3097 -25.9067 -24.3355 -13.0749  -7.6800  -6.0486  -4.0589  -1.7907
     2.6231   5.4563   5.6075   6.7702

          k = 0.0833 0.4330 0.0000 (  1487 PWs)   bands (ev):

   -27.8746 -26.3205 -24.0681 -11.7165  -6.2635  -4.2343  -3.7152  -2.7072
     1.6054   6.0178   6.0205   7.2352

          k = 0.0833 0.5292 0.0000 (  1493 PWs)   bands (ev):

   -28.1754 -26.5474 -23.9085 -10.3616  -6.1222  -5.4150  -2.4966  -0.2985
     0.7183   3.1611   5.6257   8.2420

          k = 0.1667 0.2887 0.0000 (  1472 PWs)   bands (ev):

   -27.3409 -25.4693 -24.6171 -13.1918  -7.7551  -6.5325  -4.2047  -1.3044
     2.7857   5.2294   5.3148   6.3045

          k = 0.1667 0.3849 0.0000 (  1483 PWs)   bands (ev):

   -28.0064 -25.7125 -24.4492 -11.9735  -6.1864  -4.3809  -3.3747  -3.1717
     1.9118   4.6373   6.7888   6.9139

          k = 0.1667 0.4811 0.0000 (  1489 PWs)   bands (ev):

   -28.4393 -25.9339 -24.2685 -10.5730  -5.4712  -4.9823  -2.6698  -1.3505
     0.9244   3.7613   4.2991   7.6105

          k = 0.1667 0.5774 0.0000 (  1496 PWs)   bands (ev):

   -28.5896 -26.0175 -24.1958  -9.7226  -6.6153  -4.5241  -1.9882   0.2227
     0.7601   2.1645   3.4630   7.2608

          k = 0.2500 0.4330 0.0000 (  1494 PWs)   bands (ev):

   -28.5356 -25.5463 -24.5622 -10.7160  -5.1245  -4.6767  -2.8250  -1.8093
     1.0439   3.0024   4.8215   7.2523

          k = 0.2500 0.5292 0.0000 (  1491 PWs)   bands (ev):

   -28.8198 -25.4726 -24.6033  -9.3936  -6.7019  -3.6942  -1.6873   0.0349
     0.2081   2.1504   2.6703   6.3224

          k = 0.3333 0.5774 0.0000 (  1482 PWs)   bands (ev):

   -28.9483 -25.0138 -25.0138  -8.0040  -8.0040  -3.0790  -0.7104  -0.7104
     1.3307   1.3307   1.5707   5.6879

     the Fermi energy is     0.8153 ev

!    total energy              =     -25.47933528 Ry
     estimated scf accuracy    <          4.1E-09 Ry
     smearing contrib. (-TS)   =      -0.00149092 Ry
     internal energy E=F+TS    =     -25.47784436 Ry

     The total energy is F=E-TS. E is the sum of the following terms:
     one-electron contribution =    -629.75113928 Ry
     hartree contribution      =     318.99896871 Ry
     xc contribution           =     -21.10313285 Ry
     ewald contribution        =     306.37745906 Ry

     convergence has been achieved in  19 iterations

     negative rho (up, down):  2.315E-02 0.000E+00

     Forces acting on atoms (cartesian axes, Ry/au):

     atom    1 type  1   force =     0.00000000    0.00000000  -24.89156285
     atom    2 type  1   force =     0.00000000    0.00000000  -24.89156285
     atom    3 type  1   force =     0.00000000   -0.00000000   24.89156285
     atom    4 type  1   force =     0.00000000    0.00000000   24.89156285

     Total force =    49.783126     Total SCF correction =     0.000131


     Computing stress (Cartesian axis) and pressure


     negative rho (up, down):  2.315E-02 0.000E+00
          total   stress  (Ry/bohr**3)                   (kbar)     P=     4795.01
   0.00781330  -0.00000000  -0.00000000         1149.38       -0.00       -0.00
  -0.00000000   0.00781330   0.00000000           -0.00     1149.38        0.00
  -0.00000000   0.00000000   0.08216085           -0.00        0.00    12086.28


     Writing all to output data dir /run/media/rfa/SATA/Skripsi/DFT/dft-graphene/tmp/gr-aa-2L.save/ :
     XML data file, charge density, pseudopotentials, collected wavefunctions

     init_run     :      0.30s CPU      0.46s WALL (       1 calls)
     electrons    :      6.45s CPU      3.62s WALL (       1 calls)
     forces       :      0.03s CPU      0.02s WALL (       1 calls)
     stress       :      0.08s CPU      0.04s WALL (       1 calls)

     Called by init_run:
     wfcinit      :      0.11s CPU      0.07s WALL (       1 calls)
     potinit      :      0.00s CPU      0.01s WALL (       1 calls)
     hinit0       :      0.18s CPU      0.37s WALL (       1 calls)

     Called by electrons:
     c_bands      :      5.53s CPU      3.10s WALL (      19 calls)
     sum_band     :      0.75s CPU      0.40s WALL (      19 calls)
     v_of_rho     :      0.09s CPU      0.05s WALL (      20 calls)
     newd         :      0.04s CPU      0.03s WALL (      20 calls)
     mix_rho      :      0.03s CPU      0.02s WALL (      19 calls)

     Called by c_bands:
     init_us_2    :      0.10s CPU      0.05s WALL (     779 calls)
     cegterg      :      5.27s CPU      2.92s WALL (     361 calls)

     Called by *egterg:
     cdiaghg      :      0.78s CPU      0.43s WALL (    2173 calls)
     h_psi        :      3.98s CPU      2.21s WALL (    2192 calls)
     s_psi        :      0.07s CPU      0.04s WALL (    2192 calls)
     g_psi        :      0.03s CPU      0.02s WALL (    1812 calls)

     Called by h_psi:
     h_psi:calbec :      0.28s CPU      0.16s WALL (    2192 calls)
     vloc_psi     :      3.54s CPU      1.95s WALL (    2192 calls)
     add_vuspsi   :      0.10s CPU      0.06s WALL (    2192 calls)

     General routines
     calbec       :      0.34s CPU      0.19s WALL (    2876 calls)
     fft          :      0.21s CPU      0.38s WALL (     245 calls)
     ffts         :      0.00s CPU      0.00s WALL (      19 calls)
     fftw         :      3.63s CPU      1.97s WALL (   31856 calls)

     Parallel routines

     PWSCF        :      6.92s CPU      4.29s WALL


   This run was terminated on:   4: 6:12  22Apr2025            

=------------------------------------------------------------------------------=
   JOB DONE.
=------------------------------------------------------------------------------=
