
     Program PWSCF v.7.4.1 starts on 22Apr2025 at  4: 7:13 

     This program is part of the open-source Quantum ESPRESSO suite
     for quantum simulation of materials; please cite
         "P. Giannozzi et al., J. Phys.:Condens. Matter 21 395502 (2009);
         "P. Giannozzi et al., J. Phys.:Condens. Matter 29 465901 (2017);
         "P. Giannozzi et al., J. Chem. Phys. 152 154105 (2020);
          URL http://www.quantum-espresso.org", 
     in publications or presentations arising from this work. More details at
     http://www.quantum-espresso.org/quote

     Parallel version (MPI), running on     7 processors

     MPI processes distributed on     1 nodes
     12171 MiB available memory on the printing compute node when the environment starts

     Waiting for input...
     Reading input from standard input

     Current dimensions of program PWSCF are:
     Max number of different atomic species (ntypx) = 10
     Max number of k-points (npk) =  40000
     Max angular momentum in pseudopotentials (lmaxx) =  4

     R & G space division:  proc/nbgrp/npool/nimage =       7
     Subspace diagonalization in iterative solution of the eigenvalue problem:
     a serial algorithm will be used


     Parallelization info
     --------------------
     sticks:   dense  smooth     PW     G-vecs:    dense   smooth      PW
     Min          54      54     17                 5366     5366     925
     Max          55      55     18                 5395     5395     942
     Sum         379     379    121                37615    37615    6525

     Using Slab Decomposition



     bravais-lattice index     =            4
     lattice parameter (alat)  =       4.6561  a.u.
     unit-cell volume          =     532.1899 (a.u.)^3
     number of atoms/cell      =            4
     number of atomic types    =            1
     number of electrons       =        16.00
     number of Kohn-Sham states=           12
     kinetic-energy cutoff     =      65.0000  Ry
     charge density cutoff     =     260.0000  Ry
     scf convergence threshold =      1.0E-08
     mixing beta               =       0.7000
     number of iterations used =            8  plain     mixing
     Exchange-correlation= PBE
                           (   1   4   3   4   0   0   0)

     celldm(1)=   4.656107  celldm(2)=   0.000000  celldm(3)=   6.087896
     celldm(4)=   0.000000  celldm(5)=   0.000000  celldm(6)=   0.000000

     crystal axes: (cart. coord. in units of alat)
               a(1) = (   1.000000   0.000000   0.000000 )  
               a(2) = (  -0.500000   0.866025   0.000000 )  
               a(3) = (   0.000000   0.000000   6.087896 )  

     reciprocal axes: (cart. coord. in units 2 pi/alat)
               b(1) = (  1.000000  0.577350 -0.000000 )  
               b(2) = (  0.000000  1.154701  0.000000 )  
               b(3) = (  0.000000 -0.000000  0.164260 )  


     PseudoPot. # 1 for C  read from file:
     /run/media/rfa/SATA/Skripsi/DFT/dft-graphene/pseudo/C.pbe-n-rrkjus_psl.0.1.UPF
     MD5 check sum: 96a6a315177d77e6c95bf6fd3870f9e3
     Pseudo is Ultrasoft + core correction, Zval =  4.0
     Generated using &quot;atomic&quot; code by A. Dal Corso  v.6.3MaX
     Using radial grid of 1073 points,  4 beta functions with: 
                l(1) =   0
                l(2) =   0
                l(3) =   1
                l(4) =   1
     Q(r) pseudized with 0 coefficients 


     atomic species   valence    mass     pseudopotential
     C                 4.00    12.01070     C ( 1.00)

     12 Sym. Ops. (no inversion) found



   Cartesian axes

     site n.     atom                  positions (alat units)
         1        C      tau(   1) = (   0.0000000   0.5773503   3.0439478  )
         2        C      tau(   2) = (   0.5000000   0.2886751   3.0439478  )
         3        C      tau(   3) = (   0.0000000   0.5773503   3.2468777  )
         4        C      tau(   4) = (   0.5000000   0.2886751   3.2468777  )

     number of k points=    19  Marzari-Vanderbilt smearing, width (Ry)=  0.0200
                       cart. coord. in units 2pi/alat
        k(    1) = (   0.0000000   0.0000000   0.0000000), wk =   0.0138889
        k(    2) = (   0.0000000   0.0962250   0.0000000), wk =   0.0833333
        k(    3) = (   0.0000000   0.1924501   0.0000000), wk =   0.0833333
        k(    4) = (   0.0000000   0.2886751   0.0000000), wk =   0.0833333
        k(    5) = (   0.0000000   0.3849002   0.0000000), wk =   0.0833333
        k(    6) = (   0.0000000   0.4811252   0.0000000), wk =   0.0833333
        k(    7) = (   0.0000000  -0.5773503   0.0000000), wk =   0.0416667
        k(    8) = (   0.0833333   0.1443376   0.0000000), wk =   0.0833333
        k(    9) = (   0.0833333   0.2405626   0.0000000), wk =   0.1666667
        k(   10) = (   0.0833333   0.3367877   0.0000000), wk =   0.1666667
        k(   11) = (   0.0833333   0.4330127   0.0000000), wk =   0.1666667
        k(   12) = (   0.0833333   0.5292377   0.0000000), wk =   0.1666667
        k(   13) = (   0.1666667   0.2886751   0.0000000), wk =   0.0833333
        k(   14) = (   0.1666667   0.3849002   0.0000000), wk =   0.1666667
        k(   15) = (   0.1666667   0.4811252   0.0000000), wk =   0.1666667
        k(   16) = (   0.1666667   0.5773503   0.0000000), wk =   0.0833333
        k(   17) = (   0.2500000   0.4330127   0.0000000), wk =   0.0833333
        k(   18) = (   0.2500000   0.5292377   0.0000000), wk =   0.1666667
        k(   19) = (   0.3333333   0.5773503   0.0000000), wk =   0.0277778

     Dense  grid:    37615 G-vectors     FFT dimensions: (  24,  24, 150)

     Estimated max dynamical RAM per process >      10.65 MB

     Estimated total dynamical RAM >      74.56 MB

     Check: negative core charge=   -0.000005

     Initial potential from superposition of free atoms

     starting charge      15.9998, renormalised to      16.0000

     negative rho (up, down):  1.528E-05 0.000E+00
     Starting wfcs are   16 randomized atomic wfcs

     total cpu time spent up to now is        0.7 secs

     per-process dynamical memory:    12.5 Mb

     Self-consistent Calculation

     iteration #  1     ecut=    65.00 Ry     beta= 0.70
     Davidson diagonalization with overlap
     ethr =  1.00E-02,  avg # of iterations =  8.4

     negative rho (up, down):  6.046E-04 0.000E+00

     total cpu time spent up to now is        1.7 secs

     total energy              =     -22.62376887 Ry
     estimated scf accuracy    <       9.88369481 Ry

     iteration #  2     ecut=    65.00 Ry     beta= 0.70
     Davidson diagonalization with overlap
     ethr =  1.00E-02,  avg # of iterations = 10.2

     total cpu time spent up to now is        2.7 secs

     total energy              =     -23.93319478 Ry
     estimated scf accuracy    <       6.14620899 Ry

     iteration #  3     ecut=    65.00 Ry     beta= 0.70
     Davidson diagonalization with overlap
     ethr =  1.00E-02,  avg # of iterations =  5.4

     total cpu time spent up to now is        3.2 secs

     total energy              =     -26.12469227 Ry
     estimated scf accuracy    <       0.35387935 Ry

     iteration #  4     ecut=    65.00 Ry     beta= 0.70
     Davidson diagonalization with overlap
     ethr =  2.21E-03,  avg # of iterations =  4.4

     negative rho (up, down):  6.931E-07 0.000E+00

     total cpu time spent up to now is        3.7 secs

     total energy              =     -26.08897603 Ry
     estimated scf accuracy    <       0.15816893 Ry

     iteration #  5     ecut=    65.00 Ry     beta= 0.70
     Davidson diagonalization with overlap
     ethr =  9.89E-04,  avg # of iterations =  7.0

     negative rho (up, down):  5.082E-06 0.000E+00

     total cpu time spent up to now is        4.3 secs

     total energy              =     -26.12889935 Ry
     estimated scf accuracy    <       0.00682384 Ry

     iteration #  6     ecut=    65.00 Ry     beta= 0.70
     Davidson diagonalization with overlap
     c_bands:  1 eigenvalues not converged
     c_bands:  1 eigenvalues not converged
     c_bands:  1 eigenvalues not converged
     c_bands:  1 eigenvalues not converged
     c_bands:  1 eigenvalues not converged
     c_bands:  2 eigenvalues not converged
     c_bands:  2 eigenvalues not converged
     ethr =  4.26E-05,  avg # of iterations = 15.4

     negative rho (up, down):  5.748E-06 0.000E+00

     total cpu time spent up to now is        5.7 secs

     total energy              =     -26.14271804 Ry
     estimated scf accuracy    <       0.00743087 Ry

     iteration #  7     ecut=    65.00 Ry     beta= 0.70
     Davidson diagonalization with overlap
     ethr =  4.26E-05,  avg # of iterations =  4.8

     negative rho (up, down):  1.395E-04 0.000E+00

     total cpu time spent up to now is        6.1 secs

     total energy              =     -26.13961808 Ry
     estimated scf accuracy    <       0.00690702 Ry

     iteration #  8     ecut=    65.00 Ry     beta= 0.70
     Davidson diagonalization with overlap
     ethr =  4.26E-05,  avg # of iterations =  2.4

     negative rho (up, down):  1.915E-04 0.000E+00

     total cpu time spent up to now is        6.6 secs

     total energy              =     -26.14110753 Ry
     estimated scf accuracy    <       0.00038456 Ry

     iteration #  9     ecut=    65.00 Ry     beta= 0.70
     Davidson diagonalization with overlap
     c_bands:  1 eigenvalues not converged
     c_bands:  1 eigenvalues not converged
     c_bands:  1 eigenvalues not converged
     c_bands:  1 eigenvalues not converged
     ethr =  2.40E-06,  avg # of iterations = 14.3

     negative rho (up, down):  4.824E-04 0.000E+00

     total cpu time spent up to now is        7.8 secs

     total energy              =     -26.14159109 Ry
     estimated scf accuracy    <       0.00077557 Ry

     iteration # 10     ecut=    65.00 Ry     beta= 0.70
     Davidson diagonalization with overlap
     c_bands:  1 eigenvalues not converged
     ethr =  2.40E-06,  avg # of iterations =  5.5

     negative rho (up, down):  4.997E-04 0.000E+00

     total cpu time spent up to now is        8.3 secs

     total energy              =     -26.14146213 Ry
     estimated scf accuracy    <       0.00034101 Ry

     iteration # 11     ecut=    65.00 Ry     beta= 0.70
     Davidson diagonalization with overlap
     c_bands:  1 eigenvalues not converged
     ethr =  2.13E-06,  avg # of iterations =  3.7

     negative rho (up, down):  5.721E-04 0.000E+00

     total cpu time spent up to now is        8.8 secs

     total energy              =     -26.14151679 Ry
     estimated scf accuracy    <       0.00001219 Ry

     iteration # 12     ecut=    65.00 Ry     beta= 0.70
     Davidson diagonalization with overlap
     ethr =  7.62E-08,  avg # of iterations =  7.8

     negative rho (up, down):  5.668E-04 0.000E+00

     total cpu time spent up to now is        9.7 secs

     total energy              =     -26.14155952 Ry
     estimated scf accuracy    <       0.00001118 Ry

     iteration # 13     ecut=    65.00 Ry     beta= 0.70
     Davidson diagonalization with overlap
     ethr =  6.99E-08,  avg # of iterations =  2.5

     negative rho (up, down):  5.688E-04 0.000E+00

     total cpu time spent up to now is       10.1 secs

     total energy              =     -26.14155470 Ry
     estimated scf accuracy    <       0.00002746 Ry

     iteration # 14     ecut=    65.00 Ry     beta= 0.70
     Davidson diagonalization with overlap
     ethr =  6.99E-08,  avg # of iterations =  1.1

     negative rho (up, down):  5.727E-04 0.000E+00

     total cpu time spent up to now is       10.4 secs

     total energy              =     -26.14154825 Ry
     estimated scf accuracy    <       0.00001416 Ry

     iteration # 15     ecut=    65.00 Ry     beta= 0.70
     Davidson diagonalization with overlap
     ethr =  6.99E-08,  avg # of iterations =  2.4

     negative rho (up, down):  5.732E-04 0.000E+00

     total cpu time spent up to now is       10.8 secs

     total energy              =     -26.14155006 Ry
     estimated scf accuracy    <       0.00000070 Ry

     iteration # 16     ecut=    65.00 Ry     beta= 0.70
     Davidson diagonalization with overlap
     ethr =  4.37E-09,  avg # of iterations =  6.1

     negative rho (up, down):  5.746E-04 0.000E+00

     total cpu time spent up to now is       11.5 secs

     total energy              =     -26.14155120 Ry
     estimated scf accuracy    <       0.00000005 Ry

     iteration # 17     ecut=    65.00 Ry     beta= 0.70
     Davidson diagonalization with overlap
     ethr =  3.43E-10,  avg # of iterations =  9.2

     negative rho (up, down):  5.742E-04 0.000E+00

     total cpu time spent up to now is       12.6 secs

     total energy              =     -26.14155137 Ry
     estimated scf accuracy    <       0.00000083 Ry

     iteration # 18     ecut=    65.00 Ry     beta= 0.70
     Davidson diagonalization with overlap
     ethr =  3.43E-10,  avg # of iterations =  1.4

     negative rho (up, down):  5.746E-04 0.000E+00

     total cpu time spent up to now is       13.0 secs

     total energy              =     -26.14155193 Ry
     estimated scf accuracy    <       0.00000064 Ry

     iteration # 19     ecut=    65.00 Ry     beta= 0.70
     Davidson diagonalization with overlap
     ethr =  3.43E-10,  avg # of iterations =  5.2

     negative rho (up, down):  5.745E-04 0.000E+00

     total cpu time spent up to now is       13.6 secs

     total energy              =     -26.14155135 Ry
     estimated scf accuracy    <       0.00000259 Ry

     iteration # 20     ecut=    65.00 Ry     beta= 0.70
     Davidson diagonalization with overlap
     ethr =  3.43E-10,  avg # of iterations =  5.1

     negative rho (up, down):  5.734E-04 0.000E+00

     total cpu time spent up to now is       14.1 secs

     total energy              =     -26.14155111 Ry
     estimated scf accuracy    <       0.00000083 Ry

     iteration # 21     ecut=    65.00 Ry     beta= 0.70
     Davidson diagonalization with overlap
     ethr =  3.43E-10,  avg # of iterations =  5.1

     negative rho (up, down):  5.713E-04 0.000E+00

     total cpu time spent up to now is       14.7 secs

     total energy              =     -26.14155117 Ry
     estimated scf accuracy    <       0.00000008 Ry

     iteration # 22     ecut=    65.00 Ry     beta= 0.70
     Davidson diagonalization with overlap
     ethr =  3.43E-10,  avg # of iterations =  1.8

     negative rho (up, down):  5.712E-04 0.000E+00

     total cpu time spent up to now is       15.1 secs

     total energy              =     -26.14155117 Ry
     estimated scf accuracy    <       0.00000002 Ry

     iteration # 23     ecut=    65.00 Ry     beta= 0.70
     Davidson diagonalization with overlap
     ethr =  1.08E-10,  avg # of iterations =  4.1

     negative rho (up, down):  5.716E-04 0.000E+00

     total cpu time spent up to now is       15.6 secs

     End of self-consistent calculation

          k = 0.0000 0.0000 0.0000 (  4651 PWs)   bands (ev):

   -24.5071 -23.6731 -23.6731 -16.2592 -10.9802 -10.9802  -5.1570   2.7175
     3.4084   3.5292   4.7797   5.6730

          k = 0.0000 0.0962 0.0000 (  4651 PWs)   bands (ev):

   -24.6209 -23.8732 -23.7638 -16.0807 -10.5569 -10.4052  -4.9975   1.9313
     3.6307   3.7550   4.9993   5.6135

          k = 0.0000 0.1925 0.0000 (  4667 PWs)   bands (ev):

   -25.1264 -24.3738 -23.7332 -15.5511  -9.4213  -8.8503  -4.5236   0.0590
     4.2953   4.4316   5.1511   5.6583

          k = 0.0000 0.2887 0.0000 (  4686 PWs)   bands (ev):

   -25.8604 -24.9724 -23.5005 -14.6893  -7.8832  -6.6535  -3.7424  -2.2280
     4.3798   5.3902   5.5589   6.7483

          k = 0.0000 0.3849 0.0000 (  4690 PWs)   bands (ev):

   -26.5238 -25.4990 -23.2174 -13.5436  -6.3134  -4.5437  -4.1952  -2.5957
     3.3306   6.8664   7.1182   8.2334

          k = 0.0000 0.4811 0.0000 (  4700 PWs)   bands (ev):

   -26.9661 -25.8498 -22.9949 -12.2707  -6.5707  -5.1140  -2.3147  -0.5859
     2.1804   5.4418   8.1203   8.3776

          k = 0.0000-0.5774 0.0000 (  4724 PWs)   bands (ev):

   -27.1200 -25.9719 -22.9110 -11.5311  -7.5692  -4.6591  -1.5997   1.3386
     1.9678   2.9195   7.9436   8.8203

          k = 0.0833 0.1443 0.0000 (  4666 PWs)   bands (ev):

   -24.9967 -24.0211 -23.9258 -15.7266  -9.7571  -9.3650  -4.6809   0.6352
     4.0725   4.2064   5.3070   5.4381

          k = 0.0833 0.2406 0.0000 (  4682 PWs)   bands (ev):

   -25.7187 -24.4799 -23.7610 -15.0298  -8.3780  -7.5468  -4.0554  -1.3507
     4.6992   4.9398   5.1082   6.3121

          k = 0.0833 0.3368 0.0000 (  4711 PWs)   bands (ev):

   -26.4538 -25.0016 -23.4771 -14.0198  -6.7791  -5.2555  -3.5659  -3.1149
     3.8026   6.1068   6.4514   7.5055

          k = 0.0833 0.4330 0.0000 (  4717 PWs)   bands (ev):

   -27.0155 -25.4193 -23.2087 -12.7770  -5.7087  -5.3473  -3.0047  -1.6444
     2.6873   6.2572   6.8158   8.1797

          k = 0.0833 0.5292 0.0000 (  4726 PWs)   bands (ev):

   -27.3152 -25.6468 -23.0470 -11.6151  -7.3473  -4.4830  -1.6887   0.7510
     1.7079   3.9370   5.8889   8.9009

          k = 0.1667 0.2887 0.0000 (  4706 PWs)   bands (ev):

   -26.4870 -24.5611 -23.7698 -14.1806  -6.8494  -5.7317  -3.2806  -3.1508
     3.9818   5.7525   6.2261   6.9943

          k = 0.1667 0.3849 0.0000 (  4727 PWs)   bands (ev):

   -27.1445 -24.8131 -23.5930 -13.0480  -5.2545  -5.0830  -3.6538  -2.1429
     3.0279   4.9915   7.7260   7.7404

          k = 0.1667 0.4811 0.0000 (  4736 PWs)   bands (ev):

   -27.5744 -25.0405 -23.4056 -11.7652  -6.8952  -4.0359  -1.9192  -0.2975
     1.9527   4.1290   5.1327   8.2255

          k = 0.1667 0.5774 0.0000 (  4744 PWs)   bands (ev):

   -27.7230 -25.1265 -23.3307 -10.9756  -7.8693  -3.5730  -1.1578   1.2502
     1.8193   2.9053   3.8303   7.8901

          k = 0.2500 0.4330 0.0000 (  4736 PWs)   bands (ev):

   -27.6741 -24.6515 -23.7005 -11.8337  -6.6593  -3.7143  -2.1226  -0.7254
     2.0935   3.4639   5.6995   7.8255

          k = 0.2500 0.5292 0.0000 (  4754 PWs)   bands (ev):

   -27.9556 -24.5882 -23.7337 -10.5828  -8.0920  -2.7243  -0.8834   1.0812
     1.1662   2.6506   3.5723   6.8907

          k = 0.3333 0.5774 0.0000 (  4740 PWs)   bands (ev):

   -28.0885 -24.1393 -24.1393  -9.3289  -9.3289  -2.0962   0.1582   0.1582
     2.1254   2.3326   2.3326   6.2138

     the Fermi energy is     1.3402 ev

!    total energy              =     -26.14155117 Ry
     estimated scf accuracy    <          9.4E-09 Ry
     smearing contrib. (-TS)   =       0.00008029 Ry
     internal energy E=F+TS    =     -26.14163146 Ry

     The total energy is F=E-TS. E is the sum of the following terms:
     one-electron contribution =    -631.38653034 Ry
     hartree contribution      =     320.10292265 Ry
     xc contribution           =     -21.23548283 Ry
     ewald contribution        =     306.37745907 Ry

     convergence has been achieved in  23 iterations

     negative rho (up, down):  5.716E-04 0.000E+00

     Forces acting on atoms (cartesian axes, Ry/au):

     atom    1 type  1   force =     0.00000000    0.00000000  -22.58201086
     atom    2 type  1   force =     0.00000000    0.00000000  -22.58201086
     atom    3 type  1   force =     0.00000000   -0.00000000   22.58201086
     atom    4 type  1   force =     0.00000000    0.00000000   22.58201086

     Total force =    45.164022     Total SCF correction =     0.000117


     Computing stress (Cartesian axis) and pressure


     negative rho (up, down):  5.716E-04 0.000E+00
          total   stress  (Ry/bohr**3)                   (kbar)     P=     4872.14
   0.00965664   0.00000000  -0.00000000         1420.54        0.00       -0.00
   0.00000000   0.00965664   0.00000000            0.00     1420.54        0.00
  -0.00000000   0.00000000   0.08004705           -0.00        0.00    11775.33


     Writing all to output data dir /run/media/rfa/SATA/Skripsi/DFT/dft-graphene/tmp/gr-aa-2L.save/ :
     XML data file, charge density, pseudopotentials, collected wavefunctions

     init_run     :      0.56s CPU      0.68s WALL (       1 calls)
     electrons    :     26.80s CPU     14.85s WALL (       1 calls)
     forces       :      0.08s CPU      0.05s WALL (       1 calls)
     stress       :      0.28s CPU      0.17s WALL (       1 calls)

     Called by init_run:
     wfcinit      :      0.28s CPU      0.16s WALL (       1 calls)
     potinit      :      0.01s CPU      0.01s WALL (       1 calls)
     hinit0       :      0.25s CPU      0.47s WALL (       1 calls)

     Called by electrons:
     c_bands      :     23.29s CPU     12.71s WALL (      23 calls)
     sum_band     :      2.86s CPU      1.57s WALL (      23 calls)
     v_of_rho     :      0.19s CPU      0.20s WALL (      24 calls)
     newd         :      0.25s CPU      0.23s WALL (      24 calls)
     mix_rho      :      0.18s CPU      0.11s WALL (      23 calls)

     Called by c_bands:
     init_us_2    :      0.50s CPU      0.26s WALL (     931 calls)
     cegterg      :     22.46s CPU     12.23s WALL (     437 calls)

     Called by *egterg:
     cdiaghg      :      1.41s CPU      0.74s WALL (    2969 calls)
     h_psi        :     17.17s CPU      9.44s WALL (    2988 calls)
     s_psi        :      0.41s CPU      0.22s WALL (    2988 calls)
     g_psi        :      0.16s CPU      0.09s WALL (    2532 calls)

     Called by h_psi:
     h_psi:calbec :      1.91s CPU      1.02s WALL (    2988 calls)
     vloc_psi     :     14.16s CPU      7.80s WALL (    2988 calls)
     add_vuspsi   :      0.87s CPU      0.47s WALL (    2988 calls)

     General routines
     calbec       :      2.21s CPU      1.18s WALL (    3748 calls)
     fft          :      0.30s CPU      0.53s WALL (     289 calls)
     ffts         :      0.01s CPU      0.01s WALL (      23 calls)
     fftw         :     13.43s CPU      7.45s WALL (   44466 calls)

     Parallel routines

     PWSCF        :     27.80s CPU     16.10s WALL


   This run was terminated on:   4: 7:29  22Apr2025            

=------------------------------------------------------------------------------=
   JOB DONE.
=------------------------------------------------------------------------------=
