
     Program PWSCF v.7.4.1 starts on 22Apr2025 at  4: 5:53 

     This program is part of the open-source Quantum ESPRESSO suite
     for quantum simulation of materials; please cite
         "P. Giannozzi et al., J. Phys.:Condens. Matter 21 395502 (2009);
         "P. Giannozzi et al., J. Phys.:Condens. Matter 29 465901 (2017);
         "P. Giannozzi et al., J. Chem. Phys. 152 154105 (2020);
          URL http://www.quantum-espresso.org", 
     in publications or presentations arising from this work. More details at
     http://www.quantum-espresso.org/quote

     Parallel version (MPI), running on     7 processors

     MPI processes distributed on     1 nodes
     12198 MiB available memory on the printing compute node when the environment starts

     Waiting for input...
     Reading input from standard input

     Current dimensions of program PWSCF are:
     Max number of different atomic species (ntypx) = 10
     Max number of k-points (npk) =  40000
     Max angular momentum in pseudopotentials (lmaxx) =  4

     R & G space division:  proc/nbgrp/npool/nimage =       7
     Subspace diagonalization in iterative solution of the eigenvalue problem:
     a serial algorithm will be used


     Parallelization info
     --------------------
     sticks:   dense  smooth     PW     G-vecs:    dense   smooth      PW
     Min          17      17      5                  919      919     181
     Max          18      18      6                  934      934     204
     Sum         121     121     37                 6489     6489    1321

     Using Slab Decomposition



     bravais-lattice index     =            4
     lattice parameter (alat)  =       4.6561  a.u.
     unit-cell volume          =     532.1899 (a.u.)^3
     number of atoms/cell      =            4
     number of atomic types    =            1
     number of electrons       =        16.00
     number of Kohn-Sham states=           12
     kinetic-energy cutoff     =      20.0000  Ry
     charge density cutoff     =      80.0000  Ry
     scf convergence threshold =      1.0E-08
     mixing beta               =       0.7000
     number of iterations used =            8  plain     mixing
     Exchange-correlation= PBE
                           (   1   4   3   4   0   0   0)

     celldm(1)=   4.656107  celldm(2)=   0.000000  celldm(3)=   6.087896
     celldm(4)=   0.000000  celldm(5)=   0.000000  celldm(6)=   0.000000

     crystal axes: (cart. coord. in units of alat)
               a(1) = (   1.000000   0.000000   0.000000 )  
               a(2) = (  -0.500000   0.866025   0.000000 )  
               a(3) = (   0.000000   0.000000   6.087896 )  

     reciprocal axes: (cart. coord. in units 2 pi/alat)
               b(1) = (  1.000000  0.577350 -0.000000 )  
               b(2) = (  0.000000  1.154701  0.000000 )  
               b(3) = (  0.000000 -0.000000  0.164260 )  


     PseudoPot. # 1 for C  read from file:
     /run/media/rfa/SATA/Skripsi/DFT/dft-graphene/pseudo/C.pbe-n-rrkjus_psl.0.1.UPF
     MD5 check sum: 96a6a315177d77e6c95bf6fd3870f9e3
     Pseudo is Ultrasoft + core correction, Zval =  4.0
     Generated using &quot;atomic&quot; code by A. Dal Corso  v.6.3MaX
     Using radial grid of 1073 points,  4 beta functions with: 
                l(1) =   0
                l(2) =   0
                l(3) =   1
                l(4) =   1
     Q(r) pseudized with 0 coefficients 


     atomic species   valence    mass     pseudopotential
     C                 4.00    12.01070     C ( 1.00)

     12 Sym. Ops. (no inversion) found



   Cartesian axes

     site n.     atom                  positions (alat units)
         1        C      tau(   1) = (   0.0000000   0.5773503   3.0439478  )
         2        C      tau(   2) = (   0.5000000   0.2886751   3.0439478  )
         3        C      tau(   3) = (   0.0000000   0.5773503   3.2468777  )
         4        C      tau(   4) = (   0.5000000   0.2886751   3.2468777  )

     number of k points=    19  Marzari-Vanderbilt smearing, width (Ry)=  0.0200
                       cart. coord. in units 2pi/alat
        k(    1) = (   0.0000000   0.0000000   0.0000000), wk =   0.0138889
        k(    2) = (   0.0000000   0.0962250   0.0000000), wk =   0.0833333
        k(    3) = (   0.0000000   0.1924501   0.0000000), wk =   0.0833333
        k(    4) = (   0.0000000   0.2886751   0.0000000), wk =   0.0833333
        k(    5) = (   0.0000000   0.3849002   0.0000000), wk =   0.0833333
        k(    6) = (   0.0000000   0.4811252   0.0000000), wk =   0.0833333
        k(    7) = (   0.0000000  -0.5773503   0.0000000), wk =   0.0416667
        k(    8) = (   0.0833333   0.1443376   0.0000000), wk =   0.0833333
        k(    9) = (   0.0833333   0.2405626   0.0000000), wk =   0.1666667
        k(   10) = (   0.0833333   0.3367877   0.0000000), wk =   0.1666667
        k(   11) = (   0.0833333   0.4330127   0.0000000), wk =   0.1666667
        k(   12) = (   0.0833333   0.5292377   0.0000000), wk =   0.1666667
        k(   13) = (   0.1666667   0.2886751   0.0000000), wk =   0.0833333
        k(   14) = (   0.1666667   0.3849002   0.0000000), wk =   0.1666667
        k(   15) = (   0.1666667   0.4811252   0.0000000), wk =   0.1666667
        k(   16) = (   0.1666667   0.5773503   0.0000000), wk =   0.0833333
        k(   17) = (   0.2500000   0.4330127   0.0000000), wk =   0.0833333
        k(   18) = (   0.2500000   0.5292377   0.0000000), wk =   0.1666667
        k(   19) = (   0.3333333   0.5773503   0.0000000), wk =   0.0277778

     Dense  grid:     6489 G-vectors     FFT dimensions: (  15,  15,  81)

     Estimated max dynamical RAM per process >       2.01 MB

     Estimated total dynamical RAM >      14.07 MB

     Check: negative core charge=   -0.000315

     Initial potential from superposition of free atoms

     starting charge      15.9998, renormalised to      16.0000

     negative rho (up, down):  1.288E-02 0.000E+00
     Starting wfcs are   16 randomized atomic wfcs

     total cpu time spent up to now is        0.2 secs

     per-process dynamical memory:     8.0 Mb

     Self-consistent Calculation

     iteration #  1     ecut=    20.00 Ry     beta= 0.70
     Davidson diagonalization with overlap
     ethr =  1.00E-02,  avg # of iterations =  5.2

     negative rho (up, down):  1.645E-01 0.000E+00

     total cpu time spent up to now is        0.3 secs

     total energy              =     -20.07629499 Ry
     estimated scf accuracy    <       6.61702189 Ry

     iteration #  2     ecut=    20.00 Ry     beta= 0.70
     Davidson diagonalization with overlap
     ethr =  1.00E-02,  avg # of iterations =  7.5

     negative rho (up, down):  5.408E-03 0.000E+00

     total cpu time spent up to now is        0.4 secs

     total energy              =     -15.64240486 Ry
     estimated scf accuracy    <      22.98220466 Ry

     iteration #  3     ecut=    20.00 Ry     beta= 0.70
     Davidson diagonalization with overlap
     ethr =  1.00E-02,  avg # of iterations =  7.7

     negative rho (up, down):  6.802E-03 0.000E+00

     total cpu time spent up to now is        0.6 secs

     total energy              =     -22.86089747 Ry
     estimated scf accuracy    <       0.83716412 Ry

     iteration #  4     ecut=    20.00 Ry     beta= 0.70
     Davidson diagonalization with overlap
     ethr =  5.23E-03,  avg # of iterations =  1.8

     negative rho (up, down):  1.607E-02 0.000E+00

     total cpu time spent up to now is        0.6 secs

     total energy              =     -22.65309284 Ry
     estimated scf accuracy    <       0.42089443 Ry

     iteration #  5     ecut=    20.00 Ry     beta= 0.70
     Davidson diagonalization with overlap
     ethr =  2.63E-03,  avg # of iterations =  3.2

     negative rho (up, down):  1.983E-02 0.000E+00

     total cpu time spent up to now is        0.7 secs

     total energy              =     -22.64210590 Ry
     estimated scf accuracy    <       0.13248045 Ry

     iteration #  6     ecut=    20.00 Ry     beta= 0.70
     Davidson diagonalization with overlap
     ethr =  8.28E-04,  avg # of iterations =  1.7

     negative rho (up, down):  5.037E-02 0.000E+00

     total cpu time spent up to now is        0.8 secs

     total energy              =     -22.57656370 Ry
     estimated scf accuracy    <       0.10275929 Ry

     iteration #  7     ecut=    20.00 Ry     beta= 0.70
     Davidson diagonalization with overlap
     ethr =  6.42E-04,  avg # of iterations =  3.4

     negative rho (up, down):  8.421E-02 0.000E+00

     total cpu time spent up to now is        0.9 secs

     total energy              =     -22.56599699 Ry
     estimated scf accuracy    <       0.01681125 Ry

     iteration #  8     ecut=    20.00 Ry     beta= 0.70
     Davidson diagonalization with overlap
     ethr =  1.05E-04,  avg # of iterations =  6.6

     negative rho (up, down):  8.591E-02 0.000E+00

     total cpu time spent up to now is        1.0 secs

     total energy              =     -22.56927069 Ry
     estimated scf accuracy    <       0.00068419 Ry

     iteration #  9     ecut=    20.00 Ry     beta= 0.70
     Davidson diagonalization with overlap
     ethr =  4.28E-06,  avg # of iterations =  4.9

     negative rho (up, down):  7.976E-02 0.000E+00

     total cpu time spent up to now is        1.1 secs

     total energy              =     -22.56864871 Ry
     estimated scf accuracy    <       0.00088611 Ry

     iteration # 10     ecut=    20.00 Ry     beta= 0.70
     Davidson diagonalization with overlap
     ethr =  4.28E-06,  avg # of iterations =  4.2

     negative rho (up, down):  7.790E-02 0.000E+00

     total cpu time spent up to now is        1.1 secs

     total energy              =     -22.56874709 Ry
     estimated scf accuracy    <       0.00004039 Ry

     iteration # 11     ecut=    20.00 Ry     beta= 0.70
     Davidson diagonalization with overlap
     ethr =  2.52E-07,  avg # of iterations =  4.5

     negative rho (up, down):  7.770E-02 0.000E+00

     total cpu time spent up to now is        1.2 secs

     total energy              =     -22.56874897 Ry
     estimated scf accuracy    <       0.00000190 Ry

     iteration # 12     ecut=    20.00 Ry     beta= 0.70
     Davidson diagonalization with overlap
     ethr =  1.19E-08,  avg # of iterations =  1.6

     negative rho (up, down):  7.771E-02 0.000E+00

     total cpu time spent up to now is        1.3 secs

     total energy              =     -22.56874905 Ry
     estimated scf accuracy    <       0.00000021 Ry

     iteration # 13     ecut=    20.00 Ry     beta= 0.70
     Davidson diagonalization with overlap
     ethr =  1.33E-09,  avg # of iterations =  2.0

     negative rho (up, down):  7.772E-02 0.000E+00

     total cpu time spent up to now is        1.4 secs

     total energy              =     -22.56874903 Ry
     estimated scf accuracy    <       0.00000005 Ry

     iteration # 14     ecut=    20.00 Ry     beta= 0.70
     Davidson diagonalization with overlap
     ethr =  3.32E-10,  avg # of iterations =  2.0

     negative rho (up, down):  7.773E-02 0.000E+00

     total cpu time spent up to now is        1.4 secs

     End of self-consistent calculation

          k = 0.0000 0.0000 0.0000 (   815 PWs)   bands (ev):

   -27.6702 -27.3439 -27.3439 -14.4164 -11.2290 -11.2290  -7.2967   2.2632
     2.5131   3.6491   4.8570   5.2274

          k = 0.0000 0.0962 0.0000 (   825 PWs)   bands (ev):

   -27.7332 -27.6099 -27.4279 -14.2806 -10.8817 -10.8346  -7.0663   2.4914
     2.7384   3.8651   4.1059   5.0789

          k = 0.0000 0.1925 0.0000 (   824 PWs)   bands (ev):

   -28.2718 -28.0072 -27.1228 -13.7047 -10.1952  -9.6507  -6.5928   3.1725
     3.4164   3.7651   4.0982   4.5400

          k = 0.0000 0.2887 0.0000 (   796 PWs)   bands (ev):

   -28.6869 -28.3620 -26.1284 -12.7617  -7.1481  -7.0162  -5.5476   1.0410
     2.7269   4.3080   4.5575   5.6466

          k = 0.0000 0.3849 0.0000 (   806 PWs)   bands (ev):

   -29.1899 -28.9327 -25.7456 -11.5226  -6.5259  -5.5991  -4.2561  -1.9592
     1.5397   5.8768   5.9795   6.1425

          k = 0.0000 0.4811 0.0000 (   800 PWs)   bands (ev):

   -29.6374 -29.2592 -25.5625  -9.9299  -5.4596  -4.4801  -4.0646  -1.9166
     0.4692   3.4270   6.6558   7.7624

          k = 0.0000-0.5774 0.0000 (   806 PWs)   bands (ev):

   -29.8211 -29.4043 -25.5123  -8.9289  -5.8262  -5.0534  -3.3617  -0.6651
     0.1621   1.5086   6.3777   7.9567

          k = 0.0833 0.1443 0.0000 (   809 PWs)   bands (ev):

   -28.0886 -27.4197 -27.3416 -13.8533  -9.7869  -9.5823  -6.6268   2.9487
     3.1939   3.9677   4.3276   5.5301

          k = 0.0833 0.2406 0.0000 (   817 PWs)   bands (ev):

   -28.9798 -27.7369 -26.9225 -13.1287  -9.1704  -8.6409  -6.0415   2.2951
     3.2818   3.8538   4.1002   5.2050

          k = 0.0833 0.3368 0.0000 (   808 PWs)   bands (ev):

   -29.6090 -28.0754 -26.2143 -12.0586  -7.0591  -5.9415  -5.0132  -0.6781
     2.0482   5.2033   5.4342   6.3693

          k = 0.0833 0.4330 0.0000 (   803 PWs)   bands (ev):

   -29.9808 -28.5052 -25.7851 -10.5892  -5.4293  -4.5138  -3.2743  -2.9973
     0.9245   4.5583   5.4812   6.9619

          k = 0.0833 0.5292 0.0000 (   808 PWs)   bands (ev):

   -30.2893 -28.7684 -25.6703  -9.1444  -5.3824  -4.6283  -3.5581  -0.9470
    -0.1238   2.0728   5.0653   7.5415

          k = 0.1667 0.2887 0.0000 (   809 PWs)   bands (ev):

   -29.7527 -27.3062 -26.9243 -12.2143  -7.2062  -6.5300  -5.2584   0.0686
     2.4660   4.9795   5.1226   5.6361

          k = 0.1667 0.3849 0.0000 (   802 PWs)   bands (ev):

   -30.3454 -27.6202 -26.4398 -10.9721  -5.4039  -4.3276  -3.7296  -2.2000
     1.4660   3.9787   5.4771   6.5145

          k = 0.1667 0.4811 0.0000 (   790 PWs)   bands (ev):

   -30.5862 -27.7746 -26.0152  -9.4172  -4.3582  -3.8394  -2.6341  -1.5014
     0.3821   3.1093   3.3024   6.8903

          k = 0.1667 0.5774 0.0000 (   796 PWs)   bands (ev):

   -30.7283 -27.9091 -25.9532  -8.4108  -5.7030  -3.1621  -1.9586  -0.6461
     0.2981   1.2180   2.7924   6.4517

          k = 0.2500 0.4330 0.0000 (   799 PWs)   bands (ev):

   -30.8604 -27.3513 -26.5191  -9.5487  -3.9507  -3.8571  -2.4422  -2.0728
     0.3437   2.1232   3.6462   6.3093

          k = 0.2500 0.5292 0.0000 (   796 PWs)   bands (ev):

   -30.9395 -27.2687 -26.3333  -8.0982  -5.5083  -2.8886  -1.3551  -0.7089
    -0.3608   1.2255   1.8070   5.3357

          k = 0.3333 0.5774 0.0000 (   783 PWs)   bands (ev):

   -30.8011 -26.5903 -26.5903  -6.6860  -6.6860  -1.7464  -1.7464  -0.2026
     0.6331   0.6787   0.6787   4.6538

     the Fermi energy is     0.3298 ev

!    total energy              =     -22.56874902 Ry
     estimated scf accuracy    <          3.4E-09 Ry
     smearing contrib. (-TS)   =      -0.00052853 Ry
     internal energy E=F+TS    =     -22.56822049 Ry

     The total energy is F=E-TS. E is the sum of the following terms:
     one-electron contribution =    -623.73065184 Ry
     hartree contribution      =     315.37390815 Ry
     xc contribution           =     -20.58893586 Ry
     ewald contribution        =     306.37745906 Ry

     convergence has been achieved in  14 iterations

     negative rho (up, down):  7.773E-02 0.000E+00

     Forces acting on atoms (cartesian axes, Ry/au):

     atom    1 type  1   force =     0.00000000   -0.00000000  -26.81274095
     atom    2 type  1   force =     0.00000000    0.00000000  -26.81274095
     atom    3 type  1   force =     0.00000000    0.00000000   26.81274095
     atom    4 type  1   force =     0.00000000    0.00000000   26.81274095

     Total force =    53.625482     Total SCF correction =     0.000094


     Computing stress (Cartesian axis) and pressure


     negative rho (up, down):  7.773E-02 0.000E+00
          total   stress  (Ry/bohr**3)                   (kbar)     P=     2885.94
  -0.01070249   0.00000000  -0.00000000        -1574.39        0.00       -0.00
   0.00000000  -0.01070249   0.00000000            0.00    -1574.39        0.00
  -0.00000000   0.00000000   0.08025966           -0.00        0.00    11806.60


     Writing all to output data dir /run/media/rfa/SATA/Skripsi/DFT/dft-graphene/tmp/gr-aa-2L.save/ :
     XML data file, charge density, pseudopotentials, collected wavefunctions

     init_run     :      0.11s CPU      0.12s WALL (       1 calls)
     electrons    :      2.07s CPU      1.26s WALL (       1 calls)
     forces       :      0.01s CPU      0.01s WALL (       1 calls)
     stress       :      0.02s CPU      0.02s WALL (       1 calls)

     Called by init_run:
     wfcinit      :      0.05s CPU      0.03s WALL (       1 calls)
     potinit      :      0.00s CPU      0.00s WALL (       1 calls)
     hinit0       :      0.05s CPU      0.08s WALL (       1 calls)

     Called by electrons:
     c_bands      :      1.84s CPU      1.08s WALL (      14 calls)
     sum_band     :      0.20s CPU      0.14s WALL (      14 calls)
     v_of_rho     :      0.02s CPU      0.02s WALL (      15 calls)
     newd         :      0.01s CPU      0.01s WALL (      15 calls)
     mix_rho      :      0.01s CPU      0.01s WALL (      14 calls)

     Called by c_bands:
     init_us_2    :      0.03s CPU      0.02s WALL (     589 calls)
     cegterg      :      1.71s CPU      0.99s WALL (     266 calls)

     Called by *egterg:
     cdiaghg      :      0.43s CPU      0.23s WALL (    1336 calls)
     h_psi        :      1.08s CPU      0.64s WALL (    1355 calls)
     s_psi        :      0.02s CPU      0.01s WALL (    1355 calls)
     g_psi        :      0.02s CPU      0.01s WALL (    1070 calls)

     Called by h_psi:
     h_psi:calbec :      0.09s CPU      0.05s WALL (    1355 calls)
     vloc_psi     :      0.94s CPU      0.55s WALL (    1355 calls)
     add_vuspsi   :      0.03s CPU      0.02s WALL (    1355 calls)

     General routines
     calbec       :      0.11s CPU      0.07s WALL (    1944 calls)
     fft          :      0.04s CPU      0.07s WALL (     190 calls)
     ffts         :      0.00s CPU      0.00s WALL (      14 calls)
     fftw         :      0.90s CPU      0.53s WALL (   21428 calls)

     Parallel routines

     PWSCF        :      2.27s CPU      1.54s WALL


   This run was terminated on:   4: 5:55  22Apr2025            

=------------------------------------------------------------------------------=
   JOB DONE.
=------------------------------------------------------------------------------=
