
     Program PWSCF v.7.4.1 starts on 22Apr2025 at  4: 6:19 

     This program is part of the open-source Quantum ESPRESSO suite
     for quantum simulation of materials; please cite
         "P. Giannozzi et al., J. Phys.:Condens. Matter 21 395502 (2009);
         "P. Giannozzi et al., J. Phys.:Condens. Matter 29 465901 (2017);
         "P. Giannozzi et al., J. Chem. Phys. 152 154105 (2020);
          URL http://www.quantum-espresso.org", 
     in publications or presentations arising from this work. More details at
     http://www.quantum-espresso.org/quote

     Parallel version (MPI), running on     7 processors

     MPI processes distributed on     1 nodes
     12194 MiB available memory on the printing compute node when the environment starts

     Waiting for input...
     Reading input from standard input

     Current dimensions of program PWSCF are:
     Max number of different atomic species (ntypx) = 10
     Max number of k-points (npk) =  40000
     Max angular momentum in pseudopotentials (lmaxx) =  4

     R & G space division:  proc/nbgrp/npool/nimage =       7
     Subspace diagonalization in iterative solution of the eigenvalue problem:
     a serial algorithm will be used


     Parallelization info
     --------------------
     sticks:   dense  smooth     PW     G-vecs:    dense   smooth      PW
     Min          34      34     11                 2594     2594     484
     Max          35      35     13                 2609     2609     493
     Sum         241     241     85                18211    18211    3425

     Using Slab Decomposition



     bravais-lattice index     =            4
     lattice parameter (alat)  =       4.6561  a.u.
     unit-cell volume          =     532.1899 (a.u.)^3
     number of atoms/cell      =            4
     number of atomic types    =            1
     number of electrons       =        16.00
     number of Kohn-Sham states=           12
     kinetic-energy cutoff     =      40.0000  Ry
     charge density cutoff     =     160.0000  Ry
     scf convergence threshold =      1.0E-08
     mixing beta               =       0.7000
     number of iterations used =            8  plain     mixing
     Exchange-correlation= PBE
                           (   1   4   3   4   0   0   0)

     celldm(1)=   4.656107  celldm(2)=   0.000000  celldm(3)=   6.087896
     celldm(4)=   0.000000  celldm(5)=   0.000000  celldm(6)=   0.000000

     crystal axes: (cart. coord. in units of alat)
               a(1) = (   1.000000   0.000000   0.000000 )  
               a(2) = (  -0.500000   0.866025   0.000000 )  
               a(3) = (   0.000000   0.000000   6.087896 )  

     reciprocal axes: (cart. coord. in units 2 pi/alat)
               b(1) = (  1.000000  0.577350 -0.000000 )  
               b(2) = (  0.000000  1.154701  0.000000 )  
               b(3) = (  0.000000 -0.000000  0.164260 )  


     PseudoPot. # 1 for C  read from file:
     /run/media/rfa/SATA/Skripsi/DFT/dft-graphene/pseudo/C.pbe-n-rrkjus_psl.0.1.UPF
     MD5 check sum: 96a6a315177d77e6c95bf6fd3870f9e3
     Pseudo is Ultrasoft + core correction, Zval =  4.0
     Generated using &quot;atomic&quot; code by A. Dal Corso  v.6.3MaX
     Using radial grid of 1073 points,  4 beta functions with: 
                l(1) =   0
                l(2) =   0
                l(3) =   1
                l(4) =   1
     Q(r) pseudized with 0 coefficients 


     atomic species   valence    mass     pseudopotential
     C                 4.00    12.01070     C ( 1.00)

     12 Sym. Ops. (no inversion) found



   Cartesian axes

     site n.     atom                  positions (alat units)
         1        C      tau(   1) = (   0.0000000   0.5773503   3.0439478  )
         2        C      tau(   2) = (   0.5000000   0.2886751   3.0439478  )
         3        C      tau(   3) = (   0.0000000   0.5773503   3.2468777  )
         4        C      tau(   4) = (   0.5000000   0.2886751   3.2468777  )

     number of k points=    19  Marzari-Vanderbilt smearing, width (Ry)=  0.0200
                       cart. coord. in units 2pi/alat
        k(    1) = (   0.0000000   0.0000000   0.0000000), wk =   0.0138889
        k(    2) = (   0.0000000   0.0962250   0.0000000), wk =   0.0833333
        k(    3) = (   0.0000000   0.1924501   0.0000000), wk =   0.0833333
        k(    4) = (   0.0000000   0.2886751   0.0000000), wk =   0.0833333
        k(    5) = (   0.0000000   0.3849002   0.0000000), wk =   0.0833333
        k(    6) = (   0.0000000   0.4811252   0.0000000), wk =   0.0833333
        k(    7) = (   0.0000000  -0.5773503   0.0000000), wk =   0.0416667
        k(    8) = (   0.0833333   0.1443376   0.0000000), wk =   0.0833333
        k(    9) = (   0.0833333   0.2405626   0.0000000), wk =   0.1666667
        k(   10) = (   0.0833333   0.3367877   0.0000000), wk =   0.1666667
        k(   11) = (   0.0833333   0.4330127   0.0000000), wk =   0.1666667
        k(   12) = (   0.0833333   0.5292377   0.0000000), wk =   0.1666667
        k(   13) = (   0.1666667   0.2886751   0.0000000), wk =   0.0833333
        k(   14) = (   0.1666667   0.3849002   0.0000000), wk =   0.1666667
        k(   15) = (   0.1666667   0.4811252   0.0000000), wk =   0.1666667
        k(   16) = (   0.1666667   0.5773503   0.0000000), wk =   0.0833333
        k(   17) = (   0.2500000   0.4330127   0.0000000), wk =   0.0833333
        k(   18) = (   0.2500000   0.5292377   0.0000000), wk =   0.1666667
        k(   19) = (   0.3333333   0.5773503   0.0000000), wk =   0.0277778

     Dense  grid:    18211 G-vectors     FFT dimensions: (  20,  20, 120)

     Estimated max dynamical RAM per process >       5.33 MB

     Estimated total dynamical RAM >      37.34 MB

     Check: negative core charge=   -0.000020

     Initial potential from superposition of free atoms

     starting charge      15.9998, renormalised to      16.0000

     negative rho (up, down):  1.245E-04 0.000E+00
     Starting wfcs are   16 randomized atomic wfcs

     total cpu time spent up to now is        0.8 secs

     per-process dynamical memory:    10.0 Mb

     Self-consistent Calculation

     iteration #  1     ecut=    40.00 Ry     beta= 0.70
     Davidson diagonalization with overlap
     ethr =  1.00E-02,  avg # of iterations =  7.7

     negative rho (up, down):  1.168E-02 0.000E+00

     total cpu time spent up to now is        1.1 secs

     total energy              =     -22.63081454 Ry
     estimated scf accuracy    <       9.52531981 Ry

     iteration #  2     ecut=    40.00 Ry     beta= 0.70
     Davidson diagonalization with overlap
     ethr =  1.00E-02,  avg # of iterations =  9.7

     negative rho (up, down):  2.748E-06 0.000E+00

     total cpu time spent up to now is        1.5 secs

     total energy              =     -22.45996095 Ry
     estimated scf accuracy    <       9.25880173 Ry

     iteration #  3     ecut=    40.00 Ry     beta= 0.70
     Davidson diagonalization with overlap
     ethr =  1.00E-02,  avg # of iterations =  7.6

     negative rho (up, down):  1.852E-06 0.000E+00

     total cpu time spent up to now is        1.7 secs

     total energy              =     -26.06765131 Ry
     estimated scf accuracy    <       0.62618198 Ry

     iteration #  4     ecut=    40.00 Ry     beta= 0.70
     Davidson diagonalization with overlap
     ethr =  3.91E-03,  avg # of iterations =  2.7

     negative rho (up, down):  2.806E-05 0.000E+00

     total cpu time spent up to now is        1.9 secs

     total energy              =     -25.93021848 Ry
     estimated scf accuracy    <       0.28373066 Ry

     iteration #  5     ecut=    40.00 Ry     beta= 0.70
     Davidson diagonalization with overlap
     ethr =  1.77E-03,  avg # of iterations =  5.4

     negative rho (up, down):  6.549E-05 0.000E+00

     total cpu time spent up to now is        2.1 secs

     total energy              =     -25.94901174 Ry
     estimated scf accuracy    <       0.03442754 Ry

     iteration #  6     ecut=    40.00 Ry     beta= 0.70
     Davidson diagonalization with overlap
     c_bands:  1 eigenvalues not converged
     ethr =  2.15E-04,  avg # of iterations =  7.5

     negative rho (up, down):  6.198E-05 0.000E+00

     total cpu time spent up to now is        2.3 secs

     total energy              =     -25.96104892 Ry
     estimated scf accuracy    <       0.01435740 Ry

     iteration #  7     ecut=    40.00 Ry     beta= 0.70
     Davidson diagonalization with overlap
     ethr =  8.97E-05,  avg # of iterations =  3.4

     negative rho (up, down):  2.349E-04 0.000E+00

     total cpu time spent up to now is        2.5 secs

     total energy              =     -25.95355296 Ry
     estimated scf accuracy    <       0.01448286 Ry

     iteration #  8     ecut=    40.00 Ry     beta= 0.70
     Davidson diagonalization with overlap
     c_bands:  1 eigenvalues not converged
     ethr =  8.97E-05,  avg # of iterations =  8.7

     negative rho (up, down):  5.154E-03 0.000E+00

     total cpu time spent up to now is        2.7 secs

     total energy              =     -25.95686509 Ry
     estimated scf accuracy    <       0.00704697 Ry

     iteration #  9     ecut=    40.00 Ry     beta= 0.70
     Davidson diagonalization with overlap
     c_bands:  1 eigenvalues not converged
     ethr =  4.40E-05,  avg # of iterations =  9.9

     negative rho (up, down):  4.070E-03 0.000E+00

     total cpu time spent up to now is        3.0 secs

     total energy              =     -25.95619611 Ry
     estimated scf accuracy    <       0.01181255 Ry

     iteration # 10     ecut=    40.00 Ry     beta= 0.70
     Davidson diagonalization with overlap
     ethr =  4.40E-05,  avg # of iterations =  1.2

     negative rho (up, down):  3.764E-03 0.000E+00

     total cpu time spent up to now is        3.1 secs

     total energy              =     -25.95612236 Ry
     estimated scf accuracy    <       0.00682849 Ry

     iteration # 11     ecut=    40.00 Ry     beta= 0.70
     Davidson diagonalization with overlap
     ethr =  4.27E-05,  avg # of iterations =  1.0

     negative rho (up, down):  3.929E-03 0.000E+00

     total cpu time spent up to now is        3.3 secs

     total energy              =     -25.95621313 Ry
     estimated scf accuracy    <       0.00621122 Ry

     iteration # 12     ecut=    40.00 Ry     beta= 0.70
     Davidson diagonalization with overlap
     ethr =  3.88E-05,  avg # of iterations =  1.0

     negative rho (up, down):  3.924E-03 0.000E+00

     total cpu time spent up to now is        3.4 secs

     total energy              =     -25.95633248 Ry
     estimated scf accuracy    <       0.00613199 Ry

     iteration # 13     ecut=    40.00 Ry     beta= 0.70
     Davidson diagonalization with overlap
     ethr =  3.83E-05,  avg # of iterations =  1.0

     negative rho (up, down):  4.041E-03 0.000E+00

     total cpu time spent up to now is        3.6 secs

     total energy              =     -25.95526997 Ry
     estimated scf accuracy    <       0.00636842 Ry

     iteration # 14     ecut=    40.00 Ry     beta= 0.70
     Davidson diagonalization with overlap
     ethr =  3.83E-05,  avg # of iterations =  1.1

     negative rho (up, down):  4.301E-03 0.000E+00

     total cpu time spent up to now is        3.7 secs

     total energy              =     -25.95334623 Ry
     estimated scf accuracy    <       0.00365666 Ry

     iteration # 15     ecut=    40.00 Ry     beta= 0.70
     Davidson diagonalization with overlap
     ethr =  2.29E-05,  avg # of iterations =  4.2

     negative rho (up, down):  4.347E-03 0.000E+00

     total cpu time spent up to now is        3.9 secs

     total energy              =     -25.95421543 Ry
     estimated scf accuracy    <       0.00003119 Ry

     iteration # 16     ecut=    40.00 Ry     beta= 0.70
     Davidson diagonalization with overlap
     c_bands:  1 eigenvalues not converged
     ethr =  1.95E-07,  avg # of iterations = 12.5

     negative rho (up, down):  4.353E-03 0.000E+00

     total cpu time spent up to now is        4.4 secs

     total energy              =     -25.95456443 Ry
     estimated scf accuracy    <       0.00051190 Ry

     iteration # 17     ecut=    40.00 Ry     beta= 0.70
     Davidson diagonalization with overlap
     ethr =  1.95E-07,  avg # of iterations =  2.2

     negative rho (up, down):  4.302E-03 0.000E+00

     total cpu time spent up to now is        4.5 secs

     total energy              =     -25.95437422 Ry
     estimated scf accuracy    <       0.00055804 Ry

     iteration # 18     ecut=    40.00 Ry     beta= 0.70
     Davidson diagonalization with overlap
     ethr =  1.95E-07,  avg # of iterations =  4.3

     negative rho (up, down):  4.391E-03 0.000E+00

     total cpu time spent up to now is        4.8 secs

     total energy              =     -25.95437985 Ry
     estimated scf accuracy    <       0.00012519 Ry

     iteration # 19     ecut=    40.00 Ry     beta= 0.70
     Davidson diagonalization with overlap
     ethr =  1.95E-07,  avg # of iterations =  2.1

     negative rho (up, down):  4.328E-03 0.000E+00

     total cpu time spent up to now is        4.9 secs

     total energy              =     -25.95436332 Ry
     estimated scf accuracy    <       0.00007111 Ry

     iteration # 20     ecut=    40.00 Ry     beta= 0.70
     Davidson diagonalization with overlap
     ethr =  1.95E-07,  avg # of iterations =  3.6

     negative rho (up, down):  4.326E-03 0.000E+00

     total cpu time spent up to now is        5.1 secs

     total energy              =     -25.95437399 Ry
     estimated scf accuracy    <       0.00001608 Ry

     iteration # 21     ecut=    40.00 Ry     beta= 0.70
     Davidson diagonalization with overlap
     ethr =  1.00E-07,  avg # of iterations =  1.1

     negative rho (up, down):  4.336E-03 0.000E+00

     total cpu time spent up to now is        5.2 secs

     total energy              =     -25.95436347 Ry
     estimated scf accuracy    <       0.00002292 Ry

     iteration # 22     ecut=    40.00 Ry     beta= 0.70
     Davidson diagonalization with overlap
     ethr =  1.00E-07,  avg # of iterations =  2.8

     negative rho (up, down):  4.346E-03 0.000E+00

     total cpu time spent up to now is        5.4 secs

     total energy              =     -25.95436716 Ry
     estimated scf accuracy    <       0.00000102 Ry

     iteration # 23     ecut=    40.00 Ry     beta= 0.70
     Davidson diagonalization with overlap
     ethr =  6.40E-09,  avg # of iterations =  9.4

     negative rho (up, down):  4.350E-03 0.000E+00

     total cpu time spent up to now is        5.8 secs

     total energy              =     -25.95436849 Ry
     estimated scf accuracy    <       0.00000794 Ry

     iteration # 24     ecut=    40.00 Ry     beta= 0.70
     Davidson diagonalization with overlap
     ethr =  6.40E-09,  avg # of iterations =  4.6

     negative rho (up, down):  4.348E-03 0.000E+00

     total cpu time spent up to now is        6.0 secs

     total energy              =     -25.95436989 Ry
     estimated scf accuracy    <       0.00000012 Ry

     iteration # 25     ecut=    40.00 Ry     beta= 0.70
     Davidson diagonalization with overlap
     ethr =  7.39E-10,  avg # of iterations =  3.8

     negative rho (up, down):  4.347E-03 0.000E+00

     total cpu time spent up to now is        6.2 secs

     total energy              =     -25.95436989 Ry
     estimated scf accuracy    <       0.00000023 Ry

     iteration # 26     ecut=    40.00 Ry     beta= 0.70
     Davidson diagonalization with overlap
     ethr =  7.39E-10,  avg # of iterations =  1.5

     negative rho (up, down):  4.347E-03 0.000E+00

     total cpu time spent up to now is        6.3 secs

     total energy              =     -25.95436981 Ry
     estimated scf accuracy    <       0.00000012 Ry

     iteration # 27     ecut=    40.00 Ry     beta= 0.70
     Davidson diagonalization with overlap
     ethr =  7.19E-10,  avg # of iterations =  4.1

     negative rho (up, down):  4.347E-03 0.000E+00

     total cpu time spent up to now is        6.5 secs

     total energy              =     -25.95436986 Ry
     estimated scf accuracy    <       0.00000002 Ry

     iteration # 28     ecut=    40.00 Ry     beta= 0.70
     Davidson diagonalization with overlap
     ethr =  1.15E-10,  avg # of iterations =  3.5

     negative rho (up, down):  4.347E-03 0.000E+00

     total cpu time spent up to now is        6.7 secs

     End of self-consistent calculation

          k = 0.0000 0.0000 0.0000 (  2289 PWs)   bands (ev):

   -24.7113 -23.9248 -23.9248 -16.0514 -11.2107 -11.2107  -5.3750   2.9875
     3.0907   3.6604   4.3750   5.2476

          k = 0.0000 0.0962 0.0000 (  2286 PWs)   bands (ev):

   -24.8284 -24.1247 -24.0145 -15.8937 -10.7880 -10.6357  -5.2182   2.7119
     3.2147   3.3136   4.5954   5.2195

          k = 0.0000 0.1925 0.0000 (  2280 PWs)   bands (ev):

   -25.3459 -24.6236 -23.9719 -15.3602  -9.6563  -9.0762  -4.7529   0.6625
     3.8954   3.9861   4.7715   5.2559

          k = 0.0000 0.2887 0.0000 (  2278 PWs)   bands (ev):

   -26.0863 -25.2204 -23.7343 -14.4895  -8.1250  -6.8683  -3.9896  -1.7556
     4.0257   5.0301   5.0994   6.3490

          k = 0.0000 0.3849 0.0000 (  2272 PWs)   bands (ev):

   -26.7520 -25.7459 -23.4507 -13.3073  -6.5591  -4.3797  -4.1612  -2.8813
     3.0109   6.6077   6.6289   7.8343

          k = 0.0000 0.4811 0.0000 (  2282 PWs)   bands (ev):

   -27.1958 -26.0960 -23.2287 -12.0059  -6.2337  -5.3641  -2.4999  -0.8877
     1.8969   5.2271   7.9528   8.3720

          k = 0.0000-0.5774 0.0000 (  2260 PWs)   bands (ev):

   -27.3493 -26.2178 -23.1454 -11.2354  -7.2599  -4.9093  -1.8094   1.0340
     1.6624   2.7626   7.7766   9.0661

          k = 0.0833 0.1443 0.0000 (  2291 PWs)   bands (ev):

   -25.2161 -24.2716 -24.1645 -15.5495  -9.9925  -9.5934  -4.9073   1.2886
     3.6687   3.7596   4.9225   5.0354

          k = 0.0833 0.2406 0.0000 (  2281 PWs)   bands (ev):

   -25.9463 -24.7265 -23.9945 -14.8283  -8.6156  -7.7667  -4.2945  -0.7996
     4.3339   4.5765   4.6453   5.9120

          k = 0.0833 0.3368 0.0000 (  2266 PWs)   bands (ev):

   -26.6842 -25.2469 -23.7099 -13.7910  -7.0212  -5.4566  -3.3801  -3.1439
     3.4666   5.8936   5.9321   7.2087

          k = 0.0833 0.4330 0.0000 (  2279 PWs)   bands (ev):

   -27.2471 -25.6640 -23.4424 -12.5235  -5.5945  -5.3523  -3.1748  -1.9521
     2.3869   6.2098   6.5965   7.7068

          k = 0.0833 0.5292 0.0000 (  2273 PWs)   bands (ev):

   -27.5472 -25.8909 -23.2814 -11.3471  -7.0297  -4.7352  -1.8920   0.4472
     1.4421   3.7262   5.8385   8.7190

          k = 0.1667 0.2887 0.0000 (  2273 PWs)   bands (ev):

   -26.7181 -24.8074 -24.0002 -13.9738  -7.0930  -5.9369  -3.5394  -2.7055
     3.6388   5.5708   5.7052   6.7057

          k = 0.1667 0.3849 0.0000 (  2279 PWs)   bands (ev):

   -27.3778 -25.0575 -23.8256 -12.8127  -5.5018  -4.6833  -3.8306  -2.4395
     2.7149   4.9085   7.2599   7.5351

          k = 0.1667 0.4811 0.0000 (  2273 PWs)   bands (ev):

   -27.8083 -25.2829 -23.6405 -11.5084  -6.5423  -4.2870  -2.1013  -0.6046
     1.6737   4.0413   4.8998   8.0629

          k = 0.1667 0.5774 0.0000 (  2254 PWs)   bands (ev):

   -27.9567 -25.3684 -23.5657 -10.7042  -7.5701  -3.8254  -1.3680   0.9704
     1.5136   2.7080   3.7428   7.7293

          k = 0.2500 0.4330 0.0000 (  2269 PWs)   bands (ev):

   -27.9084 -24.8941 -23.9345 -11.5777  -6.3051  -3.9654  -2.2883  -1.0426
     1.8087   3.3548   5.4503   7.6841

          k = 0.2500 0.5292 0.0000 (  2253 PWs)   bands (ev):

   -28.1901 -24.8292 -23.9698 -10.2965  -7.7731  -2.9800  -1.0812   0.7832
     0.9065   2.5318   3.3118   6.7564

          k = 0.3333 0.5774 0.0000 (  2259 PWs)   bands (ev):

   -28.3243 -24.3781 -24.3781  -9.0243  -9.0243  -2.3555  -0.0600  -0.0600
     1.9943   2.0343   2.0343   6.0973

     the Fermi energy is     1.1536 ev

!    total energy              =     -25.95436987 Ry
     estimated scf accuracy    <          2.1E-09 Ry
     smearing contrib. (-TS)   =       0.00068983 Ry
     internal energy E=F+TS    =     -25.95505970 Ry

     The total energy is F=E-TS. E is the sum of the following terms:
     one-electron contribution =    -630.92582348 Ry
     hartree contribution      =     319.78706472 Ry
     xc contribution           =     -21.19376001 Ry
     ewald contribution        =     306.37745907 Ry

     convergence has been achieved in  28 iterations

     negative rho (up, down):  4.347E-03 0.000E+00

     Forces acting on atoms (cartesian axes, Ry/au):

     atom    1 type  1   force =    -0.00000000   -0.00000000  -23.38718056
     atom    2 type  1   force =     0.00000000    0.00000000  -23.38718056
     atom    3 type  1   force =     0.00000000    0.00000000   23.38718056
     atom    4 type  1   force =     0.00000000    0.00000000   23.38718056

     Total force =    46.774361     Total SCF correction =     0.000082


     Computing stress (Cartesian axis) and pressure


     negative rho (up, down):  4.347E-03 0.000E+00
          total   stress  (Ry/bohr**3)                   (kbar)     P=     4852.61
   0.00915560  -0.00000000   0.00000000         1346.83       -0.00        0.00
  -0.00000000   0.00915560   0.00000000           -0.00     1346.83        0.00
   0.00000000   0.00000000   0.08065087            0.00        0.00    11864.15


     Writing all to output data dir /run/media/rfa/SATA/Skripsi/DFT/dft-graphene/tmp/gr-aa-2L.save/ :
     XML data file, charge density, pseudopotentials, collected wavefunctions

     init_run     :      0.47s CPU      0.70s WALL (       1 calls)
     electrons    :     10.73s CPU      5.96s WALL (       1 calls)
     forces       :      0.04s CPU      0.02s WALL (       1 calls)
     stress       :      0.11s CPU      0.07s WALL (       1 calls)

     Called by init_run:
     wfcinit      :      0.12s CPU      0.07s WALL (       1 calls)
     potinit      :      0.01s CPU      0.01s WALL (       1 calls)
     hinit0       :      0.33s CPU      0.61s WALL (       1 calls)

     Called by electrons:
     c_bands      :      9.18s CPU      5.06s WALL (      28 calls)
     sum_band     :      1.16s CPU      0.64s WALL (      28 calls)
     v_of_rho     :      0.19s CPU      0.11s WALL (      29 calls)
     newd         :      0.10s CPU      0.10s WALL (      29 calls)
     mix_rho      :      0.07s CPU      0.04s WALL (      28 calls)

     Called by c_bands:
     init_us_2    :      0.24s CPU      0.12s WALL (    1121 calls)
     cegterg      :      8.64s CPU      4.72s WALL (     532 calls)

     Called by *egterg:
     cdiaghg      :      1.16s CPU      0.63s WALL (    2955 calls)
     h_psi        :      6.02s CPU      3.31s WALL (    2974 calls)
     s_psi        :      0.18s CPU      0.09s WALL (    2974 calls)
     g_psi        :      0.07s CPU      0.04s WALL (    2423 calls)

     Called by h_psi:
     h_psi:calbec :      0.67s CPU      0.36s WALL (    2974 calls)
     vloc_psi     :      4.91s CPU      2.70s WALL (    2974 calls)
     add_vuspsi   :      0.32s CPU      0.17s WALL (    2974 calls)

     General routines
     calbec       :      0.78s CPU      0.41s WALL (    3829 calls)
     fft          :      0.38s CPU      0.64s WALL (     344 calls)
     ffts         :      0.01s CPU      0.00s WALL (      28 calls)
     fftw         :      4.55s CPU      2.48s WALL (   48020 calls)

     Parallel routines

     PWSCF        :     11.42s CPU      6.96s WALL


   This run was terminated on:   4: 6:26  22Apr2025            

=------------------------------------------------------------------------------=
   JOB DONE.
=------------------------------------------------------------------------------=
