
     Program PWSCF v.7.4.1 starts on 16Apr2025 at 14:51:39 

     This program is part of the open-source Quantum ESPRESSO suite
     for quantum simulation of materials; please cite
         "P. Giannozzi et al., J. Phys.:Condens. Matter 21 395502 (2009);
         "P. Giannozzi et al., J. Phys.:Condens. Matter 29 465901 (2017);
         "P. Giannozzi et al., J. Chem. Phys. 152 154105 (2020);
          URL http://www.quantum-espresso.org", 
     in publications or presentations arising from this work. More details at
     http://www.quantum-espresso.org/quote

     Parallel version (MPI), running on     7 processors

     MPI processes distributed on     1 nodes
     13330 MiB available memory on the printing compute node when the environment starts

     Waiting for input...
     Reading input from standard input

     Current dimensions of program PWSCF are:
     Max number of different atomic species (ntypx) = 10
     Max number of k-points (npk) =  40000
     Max angular momentum in pseudopotentials (lmaxx) =  4

     R & G space division:  proc/nbgrp/npool/nimage =       7
     Subspace diagonalization in iterative solution of the eigenvalue problem:
     a serial algorithm will be used


     Parallelization info
     --------------------
     sticks:   dense  smooth     PW     G-vecs:    dense   smooth      PW
     Min          44      44     15                 4122     4122     733
     Max          45      45     16                 4159     4159     742
     Sum         313     313    109                29029    29029    5163

     Using Slab Decomposition



     bravais-lattice index     =            4
     lattice parameter (alat)  =       4.6561  a.u.
     unit-cell volume          =     532.1899 (a.u.)^3
     number of atoms/cell      =            4
     number of atomic types    =            1
     number of electrons       =        16.00
     number of Kohn-Sham states=           12
     kinetic-energy cutoff     =      55.0000  Ry
     charge density cutoff     =     220.0000  Ry
     scf convergence threshold =      1.0E-08
     mixing beta               =       0.7000
     number of iterations used =            8  plain     mixing
     Exchange-correlation= PBE
                           (   1   4   3   4   0   0   0)

     celldm(1)=   4.656107  celldm(2)=   0.000000  celldm(3)=   6.087896
     celldm(4)=   0.000000  celldm(5)=   0.000000  celldm(6)=   0.000000

     crystal axes: (cart. coord. in units of alat)
               a(1) = (   1.000000   0.000000   0.000000 )  
               a(2) = (  -0.500000   0.866025   0.000000 )  
               a(3) = (   0.000000   0.000000   6.087896 )  

     reciprocal axes: (cart. coord. in units 2 pi/alat)
               b(1) = (  1.000000  0.577350 -0.000000 )  
               b(2) = (  0.000000  1.154701  0.000000 )  
               b(3) = (  0.000000 -0.000000  0.164260 )  


     PseudoPot. # 1 for C  read from file:
     /run/media/rfa/SATA/Skripsi/DFT/Graphene-copy/pseudo/C.pbe-n-rrkjus_psl.0.1.UPF
     MD5 check sum: 96a6a315177d77e6c95bf6fd3870f9e3
     Pseudo is Ultrasoft + core correction, Zval =  4.0
     Generated using &quot;atomic&quot; code by A. Dal Corso  v.6.3MaX
     Using radial grid of 1073 points,  4 beta functions with: 
                l(1) =   0
                l(2) =   0
                l(3) =   1
                l(4) =   1
     Q(r) pseudized with 0 coefficients 


     atomic species   valence    mass     pseudopotential
     C                 4.00    12.01070     C ( 1.00)

      6 Sym. Ops. (no inversion) found



   Cartesian axes

     site n.     atom                  positions (alat units)
         1        C      tau(   1) = (   0.0000000   0.5773503   3.0439478  )
         2        C      tau(   2) = (   0.5000000   0.2886751   3.0439478  )
         3        C      tau(   3) = (   0.0000000   0.0000000   3.2468777  )
         4        C      tau(   4) = (   0.0000000   0.5773503   3.2468777  )

     number of k points=    19  Marzari-Vanderbilt smearing, width (Ry)=  0.0200
                       cart. coord. in units 2pi/alat
        k(    1) = (   0.0000000   0.0000000   0.0000000), wk =   0.0138889
        k(    2) = (   0.0000000   0.0962250   0.0000000), wk =   0.0833333
        k(    3) = (   0.0000000   0.1924501   0.0000000), wk =   0.0833333
        k(    4) = (   0.0000000   0.2886751   0.0000000), wk =   0.0833333
        k(    5) = (   0.0000000   0.3849002   0.0000000), wk =   0.0833333
        k(    6) = (   0.0000000   0.4811252   0.0000000), wk =   0.0833333
        k(    7) = (   0.0000000  -0.5773503   0.0000000), wk =   0.0416667
        k(    8) = (   0.0833333   0.1443376   0.0000000), wk =   0.0833333
        k(    9) = (   0.0833333   0.2405626   0.0000000), wk =   0.1666667
        k(   10) = (   0.0833333   0.3367877   0.0000000), wk =   0.1666667
        k(   11) = (   0.0833333   0.4330127   0.0000000), wk =   0.1666667
        k(   12) = (   0.0833333   0.5292377   0.0000000), wk =   0.1666667
        k(   13) = (   0.1666667   0.2886751   0.0000000), wk =   0.0833333
        k(   14) = (   0.1666667   0.3849002   0.0000000), wk =   0.1666667
        k(   15) = (   0.1666667   0.4811252   0.0000000), wk =   0.1666667
        k(   16) = (   0.1666667   0.5773503   0.0000000), wk =   0.0833333
        k(   17) = (   0.2500000   0.4330127   0.0000000), wk =   0.0833333
        k(   18) = (   0.2500000   0.5292377   0.0000000), wk =   0.1666667
        k(   19) = (   0.3333333   0.5773503   0.0000000), wk =   0.0277778

     Dense  grid:    29029 G-vectors     FFT dimensions: (  24,  24, 135)

     Estimated max dynamical RAM per process >       8.39 MB

     Estimated total dynamical RAM >      58.71 MB

     Check: negative core charge=   -0.000001

     Initial potential from superposition of free atoms

     starting charge      15.9998, renormalised to      16.0000

     negative rho (up, down):  2.571E-04 0.000E+00
     Starting wfcs are   16 randomized atomic wfcs

     total cpu time spent up to now is        0.8 secs

     per-process dynamical memory:    11.5 Mb

     Self-consistent Calculation

     iteration #  1     ecut=    55.00 Ry     beta= 0.70
     Davidson diagonalization with overlap
     ethr =  1.00E-02,  avg # of iterations =  7.7

     negative rho (up, down):  1.198E-03 0.000E+00

     total cpu time spent up to now is        2.5 secs

     total energy              =     -32.66023565 Ry
     estimated scf accuracy    <       6.70659575 Ry

     iteration #  2     ecut=    55.00 Ry     beta= 0.70
     Davidson diagonalization with overlap
     ethr =  1.00E-02,  avg # of iterations =  5.5

     negative rho (up, down):  2.745E-04 0.000E+00

     total cpu time spent up to now is        3.6 secs

     total energy              =     -34.56467418 Ry
     estimated scf accuracy    <       4.54465388 Ry

     iteration #  3     ecut=    55.00 Ry     beta= 0.70
     Davidson diagonalization with overlap
     ethr =  1.00E-02,  avg # of iterations =  2.6

     negative rho (up, down):  3.811E-04 0.000E+00

     total cpu time spent up to now is        4.3 secs

     total energy              =     -35.22939195 Ry
     estimated scf accuracy    <       0.11520772 Ry

     iteration #  4     ecut=    55.00 Ry     beta= 0.70
     Davidson diagonalization with overlap
     c_bands:  1 eigenvalues not converged
     ethr =  7.20E-04,  avg # of iterations = 11.6

     negative rho (up, down):  4.548E-04 0.000E+00

     total cpu time spent up to now is        6.0 secs

     total energy              =     -35.48588720 Ry
     estimated scf accuracy    <       0.13552048 Ry

     iteration #  5     ecut=    55.00 Ry     beta= 0.70
     Davidson diagonalization with overlap
     ethr =  7.20E-04,  avg # of iterations =  4.7

     negative rho (up, down):  5.870E-04 0.000E+00

     total cpu time spent up to now is        6.8 secs

     total energy              =     -35.48653347 Ry
     estimated scf accuracy    <       0.02636589 Ry

     iteration #  6     ecut=    55.00 Ry     beta= 0.70
     Davidson diagonalization with overlap
     c_bands:  1 eigenvalues not converged
     ethr =  1.65E-04,  avg # of iterations =  9.8

     negative rho (up, down):  9.048E-04 0.000E+00

     total cpu time spent up to now is        7.9 secs

     total energy              =     -35.49787878 Ry
     estimated scf accuracy    <       0.00096930 Ry

     iteration #  7     ecut=    55.00 Ry     beta= 0.70
     Davidson diagonalization with overlap
     c_bands:  2 eigenvalues not converged
     c_bands:  2 eigenvalues not converged
     c_bands:  1 eigenvalues not converged
     c_bands:  2 eigenvalues not converged
     c_bands:  1 eigenvalues not converged
     c_bands:  1 eigenvalues not converged
     c_bands:  1 eigenvalues not converged
     c_bands:  1 eigenvalues not converged
     c_bands:  3 eigenvalues not converged
     c_bands:  2 eigenvalues not converged
     c_bands:  1 eigenvalues not converged
     c_bands:  2 eigenvalues not converged
     c_bands:  2 eigenvalues not converged
     c_bands:  1 eigenvalues not converged
     c_bands:  1 eigenvalues not converged
     c_bands:  1 eigenvalues not converged
     c_bands:  1 eigenvalues not converged
     ethr =  6.06E-06,  avg # of iterations = 19.6

     negative rho (up, down):  8.774E-04 0.000E+00

     total cpu time spent up to now is       10.8 secs

     total energy              =     -35.50088589 Ry
     estimated scf accuracy    <       0.01198758 Ry

     iteration #  8     ecut=    55.00 Ry     beta= 0.70
     Davidson diagonalization with overlap
     c_bands:  2 eigenvalues not converged
     c_bands:  1 eigenvalues not converged
     c_bands:  1 eigenvalues not converged
     c_bands:  1 eigenvalues not converged
     ethr =  6.06E-06,  avg # of iterations =  8.9

     negative rho (up, down):  9.469E-04 0.000E+00

     total cpu time spent up to now is       11.9 secs

     total energy              =     -35.49924807 Ry
     estimated scf accuracy    <       0.00568802 Ry

     iteration #  9     ecut=    55.00 Ry     beta= 0.70
     Davidson diagonalization with overlap
     ethr =  6.06E-06,  avg # of iterations =  5.8

     negative rho (up, down):  9.930E-04 0.000E+00

     total cpu time spent up to now is       13.0 secs

     total energy              =     -35.49959250 Ry
     estimated scf accuracy    <       0.00056435 Ry

     iteration # 10     ecut=    55.00 Ry     beta= 0.70
     Davidson diagonalization with overlap
     ethr =  3.53E-06,  avg # of iterations =  5.8

     negative rho (up, down):  9.672E-04 0.000E+00

     total cpu time spent up to now is       14.0 secs

     total energy              =     -35.49988657 Ry
     estimated scf accuracy    <       0.00004154 Ry

     iteration # 11     ecut=    55.00 Ry     beta= 0.70
     Davidson diagonalization with overlap
     ethr =  2.60E-07,  avg # of iterations =  8.5

     negative rho (up, down):  9.666E-04 0.000E+00

     total cpu time spent up to now is       15.6 secs

     total energy              =     -35.49995001 Ry
     estimated scf accuracy    <       0.00005880 Ry

     iteration # 12     ecut=    55.00 Ry     beta= 0.70
     Davidson diagonalization with overlap
     ethr =  2.60E-07,  avg # of iterations =  3.3

     negative rho (up, down):  9.618E-04 0.000E+00

     total cpu time spent up to now is       16.3 secs

     total energy              =     -35.49995734 Ry
     estimated scf accuracy    <       0.00000485 Ry

     iteration # 13     ecut=    55.00 Ry     beta= 0.70
     Davidson diagonalization with overlap
     ethr =  3.03E-08,  avg # of iterations =  6.1

     negative rho (up, down):  9.601E-04 0.000E+00

     total cpu time spent up to now is       17.2 secs

     total energy              =     -35.49996242 Ry
     estimated scf accuracy    <       0.00000156 Ry

     iteration # 14     ecut=    55.00 Ry     beta= 0.70
     Davidson diagonalization with overlap
     ethr =  9.78E-09,  avg # of iterations =  3.7

     negative rho (up, down):  9.617E-04 0.000E+00

     total cpu time spent up to now is       18.1 secs

     total energy              =     -35.49996244 Ry
     estimated scf accuracy    <       0.00000137 Ry

     iteration # 15     ecut=    55.00 Ry     beta= 0.70
     Davidson diagonalization with overlap
     ethr =  8.54E-09,  avg # of iterations =  1.7

     negative rho (up, down):  9.622E-04 0.000E+00

     total cpu time spent up to now is       18.8 secs

     total energy              =     -35.49996257 Ry
     estimated scf accuracy    <       0.00000012 Ry

     iteration # 16     ecut=    55.00 Ry     beta= 0.70
     Davidson diagonalization with overlap
     ethr =  7.57E-10,  avg # of iterations =  8.6

     negative rho (up, down):  9.621E-04 0.000E+00

     total cpu time spent up to now is       20.3 secs

     total energy              =     -35.49996285 Ry
     estimated scf accuracy    <       0.00000005 Ry

     iteration # 17     ecut=    55.00 Ry     beta= 0.70
     Davidson diagonalization with overlap
     ethr =  3.36E-10,  avg # of iterations =  2.6

     negative rho (up, down):  9.618E-04 0.000E+00

     total cpu time spent up to now is       21.0 secs

     total energy              =     -35.49996284 Ry
     estimated scf accuracy    <       0.00000004 Ry

     iteration # 18     ecut=    55.00 Ry     beta= 0.70
     Davidson diagonalization with overlap
     ethr =  2.66E-10,  avg # of iterations =  2.4

     negative rho (up, down):  9.617E-04 0.000E+00

     total cpu time spent up to now is       21.7 secs

     End of self-consistent calculation

          k = 0.0000 0.0000 0.0000 (  3727 PWs)   bands (ev):

   -29.6677 -21.9735 -21.9735 -16.6596  -9.3764  -9.3764  -4.9121   3.5996
     3.9471   4.1840   4.9778   5.8817

          k = 0.0000 0.0962 0.0000 (  3733 PWs)   bands (ev):

   -29.6534 -22.2518 -22.1151 -16.4812  -9.1228  -8.7594  -4.7814   3.2174
     4.1364   4.1579   5.0707   6.1477

          k = 0.0000 0.1925 0.0000 (  3703 PWs)   bands (ev):

   -29.6129 -22.9218 -22.4863 -15.9334  -8.4033  -7.0878  -4.4134   1.3808
     4.4529   4.7734   4.9936   6.1108

          k = 0.0000 0.2887 0.0000 (  3676 PWs)   bands (ev):

   -29.5544 -23.6916 -22.9681 -15.0185  -7.3104  -4.7131  -3.9594  -1.0182
     3.5467   5.8948   5.9943   6.4313

          k = 0.0000 0.3849 0.0000 (  3662 PWs)   bands (ev):

   -29.4919 -24.3480 -23.4235 -13.7765  -6.0052  -4.5457  -2.1711  -1.9696
     2.4972   4.0000   6.7449   7.4254

          k = 0.0000 0.4811 0.0000 (  3654 PWs)   bands (ev):

   -29.4435 -24.7774 -23.7424 -12.3491  -6.7689  -4.3400  -1.5063   0.7911
     1.5625   1.6643   5.3114   9.2485

          k = 0.0000-0.5774 0.0000 (  3600 PWs)   bands (ev):

   -29.4245 -24.9254 -23.8564 -11.4584  -7.8947  -3.5541  -0.6581   0.1228
     1.1139   2.7377   3.9448  10.8825

          k = 0.0833 0.1443 0.0000 (  3705 PWs)   bands (ev):

   -29.6251 -22.7862 -22.3025 -16.1169  -8.6665  -7.5930  -4.5296   2.0412
     4.4598   4.5446   4.8609   5.9169

          k = 0.0833 0.2406 0.0000 (  3670 PWs)   bands (ev):

   -29.5692 -23.6257 -22.5818 -15.3844  -7.8248  -5.5432  -4.0766  -0.0257
     3.4293   5.4516   5.5189   6.5647

          k = 0.0833 0.3368 0.0000 (  3669 PWs)   bands (ev):

   -29.4916 -24.4750 -22.8840 -14.3020  -6.6622  -3.9112  -2.9070  -2.0706
     2.2173   4.8556   6.7591   6.8324

          k = 0.0833 0.4330 0.0000 (  3654 PWs)   bands (ev):

   -29.4076 -25.1460 -23.1302 -12.9412  -5.7824  -5.0030  -2.0387  -0.3217
     1.3494   2.5371   6.9573   8.5265

          k = 0.0833 0.5292 0.0000 (  3630 PWs)   bands (ev):

   -29.3491 -25.5171 -23.2662 -11.6134  -7.4285  -3.8973  -1.1394   0.0376
     0.5242   2.7152   5.4637  10.3901

          k = 0.1667 0.2887 0.0000 (  3687 PWs)   bands (ev):

   -29.4797 -24.6112 -22.5796 -14.4834  -6.9938  -3.7669  -3.1085  -1.8173
     1.7277   5.1321   6.5666   6.5920

          k = 0.1667 0.3849 0.0000 (  3677 PWs)   bands (ev):

   -29.3372 -25.5479 -22.5702 -13.2633  -5.8967  -4.2009  -2.9157  -0.8970
     0.8962   2.9967   7.8772   8.1743

          k = 0.1667 0.4811 0.0000 (  3638 PWs)   bands (ev):

   -29.1726 -26.2413 -22.5646 -11.8708  -6.2799  -4.5307  -2.5252  -0.7123
     0.7925   2.9273   7.8378   9.9903

          k = 0.1667 0.5774 0.0000 (  3632 PWs)   bands (ev):

   -29.0904 -26.5082 -22.5630 -11.0204  -7.3594  -3.7485  -2.3313  -0.6077
    -0.5527   4.7662   6.5062  11.4763

          k = 0.2500 0.4330 0.0000 (  3641 PWs)   bands (ev):

   -29.0657 -26.5465 -22.2867 -11.9806  -5.2478  -4.7746  -3.7995  -0.8719
     0.8976   3.0350   9.1528   9.9671

          k = 0.2500 0.5292 0.0000 (  3658 PWs)   bands (ev):

   -28.7455 -27.2601 -22.1250 -10.7974  -6.4486  -4.2686  -3.7114  -1.2422
    -0.4461   5.7445   8.5940  11.0469

          k = 0.3333 0.5774 0.0000 (  3666 PWs)   bands (ev):

   -28.1065 -28.1065 -21.9611 -10.2891  -5.8048  -5.8048  -2.5656  -2.5656
    -0.5395   8.1195   9.0744   9.0744

     the Fermi energy is     0.4470 ev

!    total energy              =     -35.49996285 Ry
     estimated scf accuracy    <          2.2E-09 Ry
     smearing contrib. (-TS)   =       0.00060862 Ry
     internal energy E=F+TS    =     -35.50057147 Ry

     The total energy is F=E-TS. E is the sum of the following terms:
     one-electron contribution =    -617.18165328 Ry
     hartree contribution      =     312.01673084 Ry
     xc contribution           =     -19.65723895 Ry
     ewald contribution        =     289.32158992 Ry

     convergence has been achieved in  18 iterations

     negative rho (up, down):  9.617E-04 0.000E+00

     Forces acting on atoms (cartesian axes, Ry/au):

     atom    1 type  1   force =     0.00000000    0.00000000  -24.08833100
     atom    2 type  1   force =     0.00000000    0.00000000   -0.42787601
     atom    3 type  1   force =     0.00000000    0.00000000    0.42786322
     atom    4 type  1   force =     0.00000000    0.00000000   24.08834379

     Total force =    34.071427     Total SCF correction =     0.000054


     Computing stress (Cartesian axis) and pressure


     negative rho (up, down):  9.617E-04 0.000E+00
          total   stress  (Ry/bohr**3)                   (kbar)     P=     2864.54
   0.00757674   0.00000000   0.00000000         1114.58        0.00        0.00
   0.00000000   0.00757674   0.00000000            0.00     1114.58        0.00
  -0.00000000  -0.00000000   0.04326471           -0.00       -0.00     6364.46


     Writing all to output data dir /run/media/rfa/SATA/Skripsi/DFT/Graphene-copy/tmp/gr-ab-2L.save/ :
     XML data file, charge density, pseudopotentials, collected wavefunctions

     init_run     :      0.64s CPU      0.73s WALL (       1 calls)
     electrons    :     37.58s CPU     20.86s WALL (       1 calls)
     forces       :      0.12s CPU      0.08s WALL (       1 calls)
     stress       :      0.33s CPU      0.20s WALL (       1 calls)

     Called by init_run:
     wfcinit      :      0.34s CPU      0.19s WALL (       1 calls)
     potinit      :      0.02s CPU      0.02s WALL (       1 calls)
     hinit0       :      0.25s CPU      0.49s WALL (       1 calls)

     Called by electrons:
     c_bands      :     33.00s CPU     18.16s WALL (      18 calls)
     sum_band     :      3.94s CPU      2.18s WALL (      18 calls)
     v_of_rho     :      0.29s CPU      0.25s WALL (      19 calls)
     newd         :      0.17s CPU      0.16s WALL (      19 calls)
     mix_rho      :      0.13s CPU      0.07s WALL (      18 calls)

     Called by c_bands:
     init_us_2    :      0.57s CPU      0.30s WALL (     741 calls)
     cegterg      :     31.99s CPU     17.57s WALL (     342 calls)

     Called by *egterg:
     cdiaghg      :      2.49s CPU      1.34s WALL (    2603 calls)
     h_psi        :     24.59s CPU     13.62s WALL (    2622 calls)
     s_psi        :      0.57s CPU      0.31s WALL (    2622 calls)
     g_psi        :      0.28s CPU      0.15s WALL (    2261 calls)

     Called by h_psi:
     h_psi:calbec :      1.61s CPU      0.84s WALL (    2622 calls)
     vloc_psi     :     22.01s CPU     12.20s WALL (    2622 calls)
     add_vuspsi   :      0.78s CPU      0.44s WALL (    2622 calls)

     General routines
     calbec       :      1.92s CPU      1.01s WALL (    3287 calls)
     fft          :      0.33s CPU      0.55s WALL (     234 calls)
     ffts         :      0.01s CPU      0.01s WALL (      18 calls)
     fftw         :     22.08s CPU     12.30s WALL (   38260 calls)

     Parallel routines

     PWSCF        :     38.79s CPU     22.18s WALL


   This run was terminated on:  14:52: 1  16Apr2025            

=------------------------------------------------------------------------------=
   JOB DONE.
=------------------------------------------------------------------------------=
