
     Program PWSCF v.7.4.1 starts on 16Apr2025 at 14:52:25 

     This program is part of the open-source Quantum ESPRESSO suite
     for quantum simulation of materials; please cite
         "P. Giannozzi et al., J. Phys.:Condens. Matter 21 395502 (2009);
         "P. Giannozzi et al., J. Phys.:Condens. Matter 29 465901 (2017);
         "P. Giannozzi et al., J. Chem. Phys. 152 154105 (2020);
          URL http://www.quantum-espresso.org", 
     in publications or presentations arising from this work. More details at
     http://www.quantum-espresso.org/quote

     Parallel version (MPI), running on     7 processors

     MPI processes distributed on     1 nodes
     13318 MiB available memory on the printing compute node when the environment starts

     Waiting for input...
     Reading input from standard input

     Current dimensions of program PWSCF are:
     Max number of different atomic species (ntypx) = 10
     Max number of k-points (npk) =  40000
     Max angular momentum in pseudopotentials (lmaxx) =  4

     R & G space division:  proc/nbgrp/npool/nimage =       7
     Subspace diagonalization in iterative solution of the eigenvalue problem:
     a serial algorithm will be used


     Parallelization info
     --------------------
     sticks:   dense  smooth     PW     G-vecs:    dense   smooth      PW
     Min          54      54     17                 5366     5366     925
     Max          55      55     18                 5395     5395     942
     Sum         379     379    121                37615    37615    6525

     Using Slab Decomposition



     bravais-lattice index     =            4
     lattice parameter (alat)  =       4.6561  a.u.
     unit-cell volume          =     532.1899 (a.u.)^3
     number of atoms/cell      =            4
     number of atomic types    =            1
     number of electrons       =        16.00
     number of Kohn-Sham states=           12
     kinetic-energy cutoff     =      65.0000  Ry
     charge density cutoff     =     260.0000  Ry
     scf convergence threshold =      1.0E-08
     mixing beta               =       0.7000
     number of iterations used =            8  plain     mixing
     Exchange-correlation= PBE
                           (   1   4   3   4   0   0   0)

     celldm(1)=   4.656107  celldm(2)=   0.000000  celldm(3)=   6.087896
     celldm(4)=   0.000000  celldm(5)=   0.000000  celldm(6)=   0.000000

     crystal axes: (cart. coord. in units of alat)
               a(1) = (   1.000000   0.000000   0.000000 )  
               a(2) = (  -0.500000   0.866025   0.000000 )  
               a(3) = (   0.000000   0.000000   6.087896 )  

     reciprocal axes: (cart. coord. in units 2 pi/alat)
               b(1) = (  1.000000  0.577350 -0.000000 )  
               b(2) = (  0.000000  1.154701  0.000000 )  
               b(3) = (  0.000000 -0.000000  0.164260 )  


     PseudoPot. # 1 for C  read from file:
     /run/media/rfa/SATA/Skripsi/DFT/Graphene-copy/pseudo/C.pbe-n-rrkjus_psl.0.1.UPF
     MD5 check sum: 96a6a315177d77e6c95bf6fd3870f9e3
     Pseudo is Ultrasoft + core correction, Zval =  4.0
     Generated using &quot;atomic&quot; code by A. Dal Corso  v.6.3MaX
     Using radial grid of 1073 points,  4 beta functions with: 
                l(1) =   0
                l(2) =   0
                l(3) =   1
                l(4) =   1
     Q(r) pseudized with 0 coefficients 


     atomic species   valence    mass     pseudopotential
     C                 4.00    12.01070     C ( 1.00)

      6 Sym. Ops. (no inversion) found



   Cartesian axes

     site n.     atom                  positions (alat units)
         1        C      tau(   1) = (   0.0000000   0.5773503   3.0439478  )
         2        C      tau(   2) = (   0.5000000   0.2886751   3.0439478  )
         3        C      tau(   3) = (   0.0000000   0.0000000   3.2468777  )
         4        C      tau(   4) = (   0.0000000   0.5773503   3.2468777  )

     number of k points=    19  Marzari-Vanderbilt smearing, width (Ry)=  0.0200
                       cart. coord. in units 2pi/alat
        k(    1) = (   0.0000000   0.0000000   0.0000000), wk =   0.0138889
        k(    2) = (   0.0000000   0.0962250   0.0000000), wk =   0.0833333
        k(    3) = (   0.0000000   0.1924501   0.0000000), wk =   0.0833333
        k(    4) = (   0.0000000   0.2886751   0.0000000), wk =   0.0833333
        k(    5) = (   0.0000000   0.3849002   0.0000000), wk =   0.0833333
        k(    6) = (   0.0000000   0.4811252   0.0000000), wk =   0.0833333
        k(    7) = (   0.0000000  -0.5773503   0.0000000), wk =   0.0416667
        k(    8) = (   0.0833333   0.1443376   0.0000000), wk =   0.0833333
        k(    9) = (   0.0833333   0.2405626   0.0000000), wk =   0.1666667
        k(   10) = (   0.0833333   0.3367877   0.0000000), wk =   0.1666667
        k(   11) = (   0.0833333   0.4330127   0.0000000), wk =   0.1666667
        k(   12) = (   0.0833333   0.5292377   0.0000000), wk =   0.1666667
        k(   13) = (   0.1666667   0.2886751   0.0000000), wk =   0.0833333
        k(   14) = (   0.1666667   0.3849002   0.0000000), wk =   0.1666667
        k(   15) = (   0.1666667   0.4811252   0.0000000), wk =   0.1666667
        k(   16) = (   0.1666667   0.5773503   0.0000000), wk =   0.0833333
        k(   17) = (   0.2500000   0.4330127   0.0000000), wk =   0.0833333
        k(   18) = (   0.2500000   0.5292377   0.0000000), wk =   0.1666667
        k(   19) = (   0.3333333   0.5773503   0.0000000), wk =   0.0277778

     Dense  grid:    37615 G-vectors     FFT dimensions: (  24,  24, 150)

     Estimated max dynamical RAM per process >      10.65 MB

     Estimated total dynamical RAM >      74.56 MB

     Check: negative core charge=   -0.000004

     Initial potential from superposition of free atoms

     starting charge      15.9998, renormalised to      16.0000

     negative rho (up, down):  1.486E-05 0.000E+00
     Starting wfcs are   16 randomized atomic wfcs

     total cpu time spent up to now is        1.0 secs

     per-process dynamical memory:    12.6 Mb

     Self-consistent Calculation

     iteration #  1     ecut=    65.00 Ry     beta= 0.70
     Davidson diagonalization with overlap
     ethr =  1.00E-02,  avg # of iterations =  8.1

     negative rho (up, down):  2.963E-04 0.000E+00

     total cpu time spent up to now is        2.8 secs

     total energy              =     -32.66498538 Ry
     estimated scf accuracy    <       6.70659666 Ry

     iteration #  2     ecut=    65.00 Ry     beta= 0.70
     Davidson diagonalization with overlap
     ethr =  1.00E-02,  avg # of iterations =  5.7

     negative rho (up, down):  1.029E-04 0.000E+00

     total cpu time spent up to now is        4.0 secs

     total energy              =     -34.55471878 Ry
     estimated scf accuracy    <       4.62666978 Ry

     iteration #  3     ecut=    65.00 Ry     beta= 0.70
     Davidson diagonalization with overlap
     ethr =  1.00E-02,  avg # of iterations =  2.7

     negative rho (up, down):  1.521E-04 0.000E+00

     total cpu time spent up to now is        4.8 secs

     total energy              =     -35.23067252 Ry
     estimated scf accuracy    <       0.11809449 Ry

     iteration #  4     ecut=    65.00 Ry     beta= 0.70
     Davidson diagonalization with overlap
     ethr =  7.38E-04,  avg # of iterations = 12.3

     negative rho (up, down):  2.193E-04 0.000E+00

     total cpu time spent up to now is        6.8 secs

     total energy              =     -35.49788279 Ry
     estimated scf accuracy    <       0.14191540 Ry

     iteration #  5     ecut=    65.00 Ry     beta= 0.70
     Davidson diagonalization with overlap
     ethr =  7.38E-04,  avg # of iterations =  2.9

     negative rho (up, down):  3.619E-04 0.000E+00

     total cpu time spent up to now is        7.6 secs

     total energy              =     -35.49583100 Ry
     estimated scf accuracy    <       0.02664881 Ry

     iteration #  6     ecut=    65.00 Ry     beta= 0.70
     Davidson diagonalization with overlap
     c_bands:  1 eigenvalues not converged
     c_bands:  1 eigenvalues not converged
     ethr =  1.67E-04,  avg # of iterations = 12.5

     negative rho (up, down):  4.177E-04 0.000E+00

     total cpu time spent up to now is        9.1 secs

     total energy              =     -35.51000376 Ry
     estimated scf accuracy    <       0.00257417 Ry

     iteration #  7     ecut=    65.00 Ry     beta= 0.70
     Davidson diagonalization with overlap
     c_bands:  1 eigenvalues not converged
     c_bands:  1 eigenvalues not converged
     c_bands:  2 eigenvalues not converged
     c_bands:  1 eigenvalues not converged
     c_bands:  1 eigenvalues not converged
     ethr =  1.61E-05,  avg # of iterations = 16.4

     negative rho (up, down):  4.206E-04 0.000E+00

     total cpu time spent up to now is       11.2 secs

     total energy              =     -35.51293428 Ry
     estimated scf accuracy    <       0.00579326 Ry

     iteration #  8     ecut=    65.00 Ry     beta= 0.70
     Davidson diagonalization with overlap
     ethr =  1.61E-05,  avg # of iterations =  3.2

     negative rho (up, down):  4.420E-04 0.000E+00

     total cpu time spent up to now is       12.0 secs

     total energy              =     -35.51222913 Ry
     estimated scf accuracy    <       0.00362244 Ry

     iteration #  9     ecut=    65.00 Ry     beta= 0.70
     Davidson diagonalization with overlap
     ethr =  1.61E-05,  avg # of iterations =  1.1

     negative rho (up, down):  4.722E-04 0.000E+00

     total cpu time spent up to now is       12.7 secs

     total energy              =     -35.51179790 Ry
     estimated scf accuracy    <       0.00140242 Ry

     iteration # 10     ecut=    65.00 Ry     beta= 0.70
     Davidson diagonalization with overlap
     ethr =  8.77E-06,  avg # of iterations =  4.1

     negative rho (up, down):  4.718E-04 0.000E+00

     total cpu time spent up to now is       13.5 secs

     total energy              =     -35.51206365 Ry
     estimated scf accuracy    <       0.00005437 Ry

     iteration # 11     ecut=    65.00 Ry     beta= 0.70
     Davidson diagonalization with overlap
     c_bands:  1 eigenvalues not converged
     c_bands:  2 eigenvalues not converged
     c_bands:  1 eigenvalues not converged
     c_bands:  1 eigenvalues not converged
     c_bands:  1 eigenvalues not converged
     c_bands:  1 eigenvalues not converged
     ethr =  3.40E-07,  avg # of iterations = 15.3

     negative rho (up, down):  4.619E-04 0.000E+00

     total cpu time spent up to now is       16.2 secs

     total energy              =     -35.51228992 Ry
     estimated scf accuracy    <       0.00014517 Ry

     iteration # 12     ecut=    65.00 Ry     beta= 0.70
     Davidson diagonalization with overlap
     c_bands:  1 eigenvalues not converged
     ethr =  3.40E-07,  avg # of iterations =  5.1

     negative rho (up, down):  4.558E-04 0.000E+00

     total cpu time spent up to now is       17.1 secs

     total energy              =     -35.51225759 Ry
     estimated scf accuracy    <       0.00006836 Ry

     iteration # 13     ecut=    65.00 Ry     beta= 0.70
     Davidson diagonalization with overlap
     ethr =  3.40E-07,  avg # of iterations =  5.3

     negative rho (up, down):  4.592E-04 0.000E+00

     total cpu time spent up to now is       18.1 secs

     total energy              =     -35.51227732 Ry
     estimated scf accuracy    <       0.00000176 Ry

     iteration # 14     ecut=    65.00 Ry     beta= 0.70
     Davidson diagonalization with overlap
     ethr =  1.10E-08,  avg # of iterations =  8.9

     negative rho (up, down):  4.602E-04 0.000E+00

     total cpu time spent up to now is       19.9 secs

     total energy              =     -35.51228312 Ry
     estimated scf accuracy    <       0.00000058 Ry

     iteration # 15     ecut=    65.00 Ry     beta= 0.70
     Davidson diagonalization with overlap
     ethr =  3.60E-09,  avg # of iterations =  3.8

     negative rho (up, down):  4.593E-04 0.000E+00

     total cpu time spent up to now is       20.8 secs

     total energy              =     -35.51228269 Ry
     estimated scf accuracy    <       0.00000123 Ry

     iteration # 16     ecut=    65.00 Ry     beta= 0.70
     Davidson diagonalization with overlap
     ethr =  3.60E-09,  avg # of iterations =  3.2

     negative rho (up, down):  4.590E-04 0.000E+00

     total cpu time spent up to now is       21.6 secs

     End of self-consistent calculation

          k = 0.0000 0.0000 0.0000 (  4651 PWs)   bands (ev):

   -29.6613 -21.9653 -21.9653 -16.6783  -9.3741  -9.3741  -4.9046   3.5597
     3.9181   4.1568   4.9615   5.8527

          k = 0.0000 0.0962 0.0000 (  4651 PWs)   bands (ev):

   -29.6470 -22.2427 -22.1056 -16.4981  -9.1204  -8.7570  -4.7737   3.1699
     4.1203   4.1308   5.0609   5.9425

          k = 0.0000 0.1925 0.0000 (  4667 PWs)   bands (ev):

   -29.6066 -22.9133 -22.4782 -15.9516  -8.4009  -7.0854  -4.4057   1.3428
     4.4579   4.7547   4.9677   6.0843

          k = 0.0000 0.2887 0.0000 (  4686 PWs)   bands (ev):

   -29.5484 -23.6833 -22.9608 -15.0386  -7.3073  -4.7110  -3.9535  -1.0424
     3.5493   5.8740   5.9669   6.4328

          k = 0.0000 0.3849 0.0000 (  4690 PWs)   bands (ev):

   -29.4861 -24.3403 -23.4165 -13.7983  -6.0014  -4.5555  -2.1691  -1.9681
     2.4940   4.0013   6.7461   7.3973

          k = 0.0000 0.4811 0.0000 (  4700 PWs)   bands (ev):

   -29.4377 -24.7697 -23.7359 -12.3758  -6.7754  -4.3346  -1.4962   0.7924
     1.5539   1.6664   5.3125   9.2310

          k = 0.0000-0.5774 0.0000 (  4724 PWs)   bands (ev):

   -29.4193 -24.9179 -23.8501 -11.4933  -7.8945  -3.5453  -0.6462   0.1239
     1.1003   2.7391   3.9451  10.8695

          k = 0.0833 0.1443 0.0000 (  4666 PWs)   bands (ev):

   -29.6188 -22.7774 -22.2943 -16.1349  -8.6640  -7.5906  -4.5219   1.9971
     4.4549   4.5267   4.8474   5.8923

          k = 0.0833 0.2406 0.0000 (  4682 PWs)   bands (ev):

   -29.5633 -23.6175 -22.5741 -15.4043  -7.8222  -5.5410  -4.0691  -0.0603
     3.4389   5.4322   5.4903   6.5419

          k = 0.0833 0.3368 0.0000 (  4711 PWs)   bands (ev):

   -29.4857 -24.4674 -22.8766 -14.3229  -6.6589  -3.9110  -2.9057  -2.0855
     2.2210   4.8584   6.7365   6.8122

          k = 0.0833 0.4330 0.0000 (  4717 PWs)   bands (ev):

   -29.4020 -25.1387 -23.1231 -12.9651  -5.7876  -5.0040  -2.0331  -0.3209
     1.3501   2.5392   6.9565   8.5054

          k = 0.0833 0.5292 0.0000 (  4726 PWs)   bands (ev):

   -29.3438 -25.5100 -23.2593 -11.6465  -7.4313  -3.8906  -1.1319   0.0338
     0.5258   2.7169   5.4623  10.3760

          k = 0.1667 0.2887 0.0000 (  4706 PWs)   bands (ev):

   -29.4740 -24.6033 -22.5721 -14.5024  -6.9909  -3.7596  -3.1063  -1.8450
     1.7388   5.1354   6.5417   6.5726

          k = 0.1667 0.3849 0.0000 (  4727 PWs)   bands (ev):

   -29.3313 -25.5406 -22.5627 -13.2852  -5.8933  -4.2127  -2.9184  -0.8933
     0.9059   2.9992   7.8626   8.1563

          k = 0.1667 0.4811 0.0000 (  4736 PWs)   bands (ev):

   -29.1672 -26.2344 -22.5574 -11.9007  -6.2879  -4.5268  -2.5286  -0.7007
     0.7952   2.9306   7.8361   9.9742

          k = 0.1667 0.5774 0.0000 (  4744 PWs)   bands (ev):

   -29.0849 -26.5014 -22.5560 -11.0593  -7.3592  -3.7428  -2.3386  -0.5928
    -0.5505   4.7694   6.5042  11.4689

          k = 0.2500 0.4330 0.0000 (  4736 PWs)   bands (ev):

   -29.0602 -26.5396 -22.2795 -12.0102  -5.2606  -4.7752  -3.7981  -0.8574
     0.9004   3.0394   9.1461   9.9480

          k = 0.2500 0.5292 0.0000 (  4754 PWs)   bands (ev):

   -28.7396 -27.2534 -22.1178 -10.8348  -6.4518  -4.2709  -3.7075  -1.2355
    -0.4328   5.7483   8.5938  11.0443

          k = 0.3333 0.5774 0.0000 (  4740 PWs)   bands (ev):

   -28.1001 -28.1001 -21.9538 -10.3307  -5.8047  -5.8046  -2.5619  -2.5619
    -0.5219   8.1262   9.0745   9.0745

     the Fermi energy is     0.4563 ev

!    total energy              =     -35.51228295 Ry
     estimated scf accuracy    <          9.3E-09 Ry
     smearing contrib. (-TS)   =       0.00048578 Ry
     internal energy E=F+TS    =     -35.51276874 Ry

     The total energy is F=E-TS. E is the sum of the following terms:
     one-electron contribution =    -617.20589260 Ry
     hartree contribution      =     312.03046318 Ry
     xc contribution           =     -19.65892928 Ry
     ewald contribution        =     289.32158996 Ry

     convergence has been achieved in  16 iterations

     negative rho (up, down):  4.590E-04 0.000E+00

     Forces acting on atoms (cartesian axes, Ry/au):

     atom    1 type  1   force =     0.00000000    0.00000000  -23.99657887
     atom    2 type  1   force =     0.00000000    0.00000000   -0.42684352
     atom    3 type  1   force =     0.00000000    0.00000000    0.42683962
     atom    4 type  1   force =     0.00000000    0.00000000   23.99658277

     Total force =    33.941658     Total SCF correction =     0.000180


     Computing stress (Cartesian axis) and pressure


     negative rho (up, down):  4.590E-04 0.000E+00
          total   stress  (Ry/bohr**3)                   (kbar)     P=     2872.20
   0.00763877   0.00000000   0.00000000         1123.70        0.00        0.00
   0.00000000   0.00763877   0.00000000            0.00     1123.70        0.00
   0.00000000   0.00000000   0.04329694            0.00        0.00     6369.20


     Writing all to output data dir /run/media/rfa/SATA/Skripsi/DFT/Graphene-copy/tmp/gr-ab-2L.save/ :
     XML data file, charge density, pseudopotentials, collected wavefunctions

     init_run     :      0.92s CPU      0.90s WALL (       1 calls)
     electrons    :     37.02s CPU     20.60s WALL (       1 calls)
     forces       :      0.16s CPU      0.09s WALL (       1 calls)
     stress       :      0.50s CPU      0.31s WALL (       1 calls)

     Called by init_run:
     wfcinit      :      0.60s CPU      0.34s WALL (       1 calls)
     potinit      :      0.01s CPU      0.01s WALL (       1 calls)
     hinit0       :      0.27s CPU      0.50s WALL (       1 calls)

     Called by electrons:
     c_bands      :     32.73s CPU     18.02s WALL (      16 calls)
     sum_band     :      3.65s CPU      2.02s WALL (      16 calls)
     v_of_rho     :      0.23s CPU      0.23s WALL (      17 calls)
     newd         :      0.23s CPU      0.21s WALL (      17 calls)
     mix_rho      :      0.14s CPU      0.08s WALL (      16 calls)

     Called by c_bands:
     init_us_2    :      0.73s CPU      0.39s WALL (     665 calls)
     cegterg      :     31.59s CPU     17.35s WALL (     304 calls)

     Called by *egterg:
     cdiaghg      :      2.42s CPU      1.30s WALL (    2402 calls)
     h_psi        :     23.42s CPU     12.96s WALL (    2421 calls)
     s_psi        :      0.75s CPU      0.41s WALL (    2421 calls)
     g_psi        :      0.32s CPU      0.17s WALL (    2098 calls)

     Called by h_psi:
     h_psi:calbec :      1.75s CPU      0.94s WALL (    2421 calls)
     vloc_psi     :     20.33s CPU     11.30s WALL (    2421 calls)
     add_vuspsi   :      1.06s CPU      0.56s WALL (    2421 calls)

     General routines
     calbec       :      2.15s CPU      1.15s WALL (    3048 calls)
     fft          :      0.34s CPU      0.58s WALL (     212 calls)
     ffts         :      0.01s CPU      0.01s WALL (      16 calls)
     fftw         :     19.76s CPU     11.04s WALL (   33652 calls)

     Parallel routines

     PWSCF        :     38.78s CPU     22.51s WALL


   This run was terminated on:  14:52:48  16Apr2025            

=------------------------------------------------------------------------------=
   JOB DONE.
=------------------------------------------------------------------------------=
