
     Program PWSCF v.7.4.1 starts on 16Apr2025 at 14:53:24 

     This program is part of the open-source Quantum ESPRESSO suite
     for quantum simulation of materials; please cite
         "P. Giannozzi et al., J. Phys.:Condens. Matter 21 395502 (2009);
         "P. Giannozzi et al., J. Phys.:Condens. Matter 29 465901 (2017);
         "P. Giannozzi et al., J. Chem. Phys. 152 154105 (2020);
          URL http://www.quantum-espresso.org", 
     in publications or presentations arising from this work. More details at
     http://www.quantum-espresso.org/quote

     Parallel version (MPI), running on     7 processors

     MPI processes distributed on     1 nodes
     13324 MiB available memory on the printing compute node when the environment starts

     Waiting for input...
     Reading input from standard input

     Current dimensions of program PWSCF are:
     Max number of different atomic species (ntypx) = 10
     Max number of k-points (npk) =  40000
     Max angular momentum in pseudopotentials (lmaxx) =  4

     R & G space division:  proc/nbgrp/npool/nimage =       7
     Subspace diagonalization in iterative solution of the eigenvalue problem:
     a serial algorithm will be used


     Parallelization info
     --------------------
     sticks:   dense  smooth     PW     G-vecs:    dense   smooth      PW
     Min          62      62     19                 6632     6632    1108
     Max          63      63     21                 6655     6655    1119
     Sum         439     439    139                46531    46531    7785

     Using Slab Decomposition



     bravais-lattice index     =            4
     lattice parameter (alat)  =       4.6561  a.u.
     unit-cell volume          =     532.1899 (a.u.)^3
     number of atoms/cell      =            4
     number of atomic types    =            1
     number of electrons       =        16.00
     number of Kohn-Sham states=           12
     kinetic-energy cutoff     =      75.0000  Ry
     charge density cutoff     =     300.0000  Ry
     scf convergence threshold =      1.0E-08
     mixing beta               =       0.7000
     number of iterations used =            8  plain     mixing
     Exchange-correlation= PBE
                           (   1   4   3   4   0   0   0)

     celldm(1)=   4.656107  celldm(2)=   0.000000  celldm(3)=   6.087896
     celldm(4)=   0.000000  celldm(5)=   0.000000  celldm(6)=   0.000000

     crystal axes: (cart. coord. in units of alat)
               a(1) = (   1.000000   0.000000   0.000000 )  
               a(2) = (  -0.500000   0.866025   0.000000 )  
               a(3) = (   0.000000   0.000000   6.087896 )  

     reciprocal axes: (cart. coord. in units 2 pi/alat)
               b(1) = (  1.000000  0.577350 -0.000000 )  
               b(2) = (  0.000000  1.154701  0.000000 )  
               b(3) = (  0.000000 -0.000000  0.164260 )  


     PseudoPot. # 1 for C  read from file:
     /run/media/rfa/SATA/Skripsi/DFT/Graphene-copy/pseudo/C.pbe-n-rrkjus_psl.0.1.UPF
     MD5 check sum: 96a6a315177d77e6c95bf6fd3870f9e3
     Pseudo is Ultrasoft + core correction, Zval =  4.0
     Generated using &quot;atomic&quot; code by A. Dal Corso  v.6.3MaX
     Using radial grid of 1073 points,  4 beta functions with: 
                l(1) =   0
                l(2) =   0
                l(3) =   1
                l(4) =   1
     Q(r) pseudized with 0 coefficients 


     atomic species   valence    mass     pseudopotential
     C                 4.00    12.01070     C ( 1.00)

      6 Sym. Ops. (no inversion) found



   Cartesian axes

     site n.     atom                  positions (alat units)
         1        C      tau(   1) = (   0.0000000   0.5773503   3.0439478  )
         2        C      tau(   2) = (   0.5000000   0.2886751   3.0439478  )
         3        C      tau(   3) = (   0.0000000   0.0000000   3.2468777  )
         4        C      tau(   4) = (   0.0000000   0.5773503   3.2468777  )

     number of k points=    19  Marzari-Vanderbilt smearing, width (Ry)=  0.0200
                       cart. coord. in units 2pi/alat
        k(    1) = (   0.0000000   0.0000000   0.0000000), wk =   0.0138889
        k(    2) = (   0.0000000   0.0962250   0.0000000), wk =   0.0833333
        k(    3) = (   0.0000000   0.1924501   0.0000000), wk =   0.0833333
        k(    4) = (   0.0000000   0.2886751   0.0000000), wk =   0.0833333
        k(    5) = (   0.0000000   0.3849002   0.0000000), wk =   0.0833333
        k(    6) = (   0.0000000   0.4811252   0.0000000), wk =   0.0833333
        k(    7) = (   0.0000000  -0.5773503   0.0000000), wk =   0.0416667
        k(    8) = (   0.0833333   0.1443376   0.0000000), wk =   0.0833333
        k(    9) = (   0.0833333   0.2405626   0.0000000), wk =   0.1666667
        k(   10) = (   0.0833333   0.3367877   0.0000000), wk =   0.1666667
        k(   11) = (   0.0833333   0.4330127   0.0000000), wk =   0.1666667
        k(   12) = (   0.0833333   0.5292377   0.0000000), wk =   0.1666667
        k(   13) = (   0.1666667   0.2886751   0.0000000), wk =   0.0833333
        k(   14) = (   0.1666667   0.3849002   0.0000000), wk =   0.1666667
        k(   15) = (   0.1666667   0.4811252   0.0000000), wk =   0.1666667
        k(   16) = (   0.1666667   0.5773503   0.0000000), wk =   0.0833333
        k(   17) = (   0.2500000   0.4330127   0.0000000), wk =   0.0833333
        k(   18) = (   0.2500000   0.5292377   0.0000000), wk =   0.1666667
        k(   19) = (   0.3333333   0.5773503   0.0000000), wk =   0.0277778

     Dense  grid:    46531 G-vectors     FFT dimensions: (  25,  25, 160)

     Estimated max dynamical RAM per process >      13.04 MB

     Estimated total dynamical RAM >      91.31 MB

     Check: negative core charge=   -0.000003

     Initial potential from superposition of free atoms

     starting charge      15.9998, renormalised to      16.0000

     negative rho (up, down):  6.973E-05 0.000E+00
     Starting wfcs are   16 randomized atomic wfcs

     total cpu time spent up to now is        0.9 secs

     per-process dynamical memory:    13.9 Mb

     Self-consistent Calculation

     iteration #  1     ecut=    75.00 Ry     beta= 0.70
     Davidson diagonalization with overlap
     ethr =  1.00E-02,  avg # of iterations =  8.1

     negative rho (up, down):  1.717E-05 0.000E+00

     total cpu time spent up to now is        2.8 secs

     total energy              =     -32.67064512 Ry
     estimated scf accuracy    <       6.70496511 Ry

     iteration #  2     ecut=    75.00 Ry     beta= 0.70
     Davidson diagonalization with overlap
     ethr =  1.00E-02,  avg # of iterations =  5.6

     negative rho (up, down):  5.306E-08 0.000E+00

     total cpu time spent up to now is        4.2 secs

     total energy              =     -34.58438523 Ry
     estimated scf accuracy    <       4.53468428 Ry

     iteration #  3     ecut=    75.00 Ry     beta= 0.70
     Davidson diagonalization with overlap
     ethr =  1.00E-02,  avg # of iterations =  2.6

     negative rho (up, down):  1.017E-06 0.000E+00

     total cpu time spent up to now is        5.0 secs

     total energy              =     -35.23780058 Ry
     estimated scf accuracy    <       0.12230020 Ry

     iteration #  4     ecut=    75.00 Ry     beta= 0.70
     Davidson diagonalization with overlap
     c_bands:  1 eigenvalues not converged
     ethr =  7.64E-04,  avg # of iterations = 11.4

     negative rho (up, down):  5.434E-06 0.000E+00

     total cpu time spent up to now is        7.2 secs

     total energy              =     -35.50206493 Ry
     estimated scf accuracy    <       0.12903531 Ry

     iteration #  5     ecut=    75.00 Ry     beta= 0.70
     Davidson diagonalization with overlap
     ethr =  7.64E-04,  avg # of iterations =  4.1

     negative rho (up, down):  5.893E-05 0.000E+00

     total cpu time spent up to now is        8.0 secs

     total energy              =     -35.49799794 Ry
     estimated scf accuracy    <       0.03011912 Ry

     iteration #  6     ecut=    75.00 Ry     beta= 0.70
     Davidson diagonalization with overlap
     c_bands:  1 eigenvalues not converged
     c_bands:  2 eigenvalues not converged
     c_bands:  1 eigenvalues not converged
     ethr =  1.88E-04,  avg # of iterations = 11.6

     negative rho (up, down):  8.524E-05 0.000E+00

     total cpu time spent up to now is        9.7 secs

     total energy              =     -35.51174649 Ry
     estimated scf accuracy    <       0.00124002 Ry

     iteration #  7     ecut=    75.00 Ry     beta= 0.70
     Davidson diagonalization with overlap
     c_bands:  2 eigenvalues not converged
     c_bands:  3 eigenvalues not converged
     c_bands:  3 eigenvalues not converged
     c_bands:  1 eigenvalues not converged
     c_bands:  3 eigenvalues not converged
     c_bands:  1 eigenvalues not converged
     c_bands:  2 eigenvalues not converged
     c_bands:  2 eigenvalues not converged
     c_bands:  1 eigenvalues not converged
     c_bands:  1 eigenvalues not converged
     ethr =  7.75E-06,  avg # of iterations = 17.8

     negative rho (up, down):  9.308E-05 0.000E+00

     total cpu time spent up to now is       12.7 secs

     total energy              =     -35.51553482 Ry
     estimated scf accuracy    <       0.00416591 Ry

     iteration #  8     ecut=    75.00 Ry     beta= 0.70
     Davidson diagonalization with overlap
     c_bands:  1 eigenvalues not converged
     ethr =  7.75E-06,  avg # of iterations =  5.1

     negative rho (up, down):  1.159E-04 0.000E+00

     total cpu time spent up to now is       13.7 secs

     total energy              =     -35.51453124 Ry
     estimated scf accuracy    <       0.00324812 Ry

     iteration #  9     ecut=    75.00 Ry     beta= 0.70
     Davidson diagonalization with overlap
     ethr =  7.75E-06,  avg # of iterations =  1.8

     negative rho (up, down):  1.251E-04 0.000E+00

     total cpu time spent up to now is       14.5 secs

     total energy              =     -35.51441860 Ry
     estimated scf accuracy    <       0.00075811 Ry

     iteration # 10     ecut=    75.00 Ry     beta= 0.70
     Davidson diagonalization with overlap
     c_bands:  1 eigenvalues not converged
     ethr =  4.74E-06,  avg # of iterations =  6.7

     negative rho (up, down):  1.216E-04 0.000E+00

     total cpu time spent up to now is       15.6 secs

     total energy              =     -35.51469075 Ry
     estimated scf accuracy    <       0.00000478 Ry

     iteration # 11     ecut=    75.00 Ry     beta= 0.70
     Davidson diagonalization with overlap
     c_bands:  1 eigenvalues not converged
     c_bands:  1 eigenvalues not converged
     c_bands:  1 eigenvalues not converged
     c_bands:  3 eigenvalues not converged
     c_bands:  5 eigenvalues not converged
     c_bands:  5 eigenvalues not converged
     c_bands:  2 eigenvalues not converged
     ethr =  2.99E-08,  avg # of iterations = 20.4

     negative rho (up, down):  1.195E-04 0.000E+00

     total cpu time spent up to now is       19.8 secs

     total energy              =     -35.51475953 Ry
     estimated scf accuracy    <       0.00010598 Ry

     iteration # 12     ecut=    75.00 Ry     beta= 0.70
     Davidson diagonalization with overlap
     c_bands:  1 eigenvalues not converged
     c_bands:  1 eigenvalues not converged
     ethr =  2.99E-08,  avg # of iterations =  8.5

     negative rho (up, down):  1.201E-04 0.000E+00

     total cpu time spent up to now is       21.4 secs

     total energy              =     -35.51477791 Ry
     estimated scf accuracy    <       0.00000093 Ry

     iteration # 13     ecut=    75.00 Ry     beta= 0.70
     Davidson diagonalization with overlap
     c_bands:  1 eigenvalues not converged
     ethr =  5.79E-09,  avg # of iterations =  9.0

     negative rho (up, down):  1.190E-04 0.000E+00

     total cpu time spent up to now is       23.2 secs

     total energy              =     -35.51478086 Ry
     estimated scf accuracy    <       0.00000574 Ry

     iteration # 14     ecut=    75.00 Ry     beta= 0.70
     Davidson diagonalization with overlap
     ethr =  5.79E-09,  avg # of iterations =  4.1

     negative rho (up, down):  1.191E-04 0.000E+00

     total cpu time spent up to now is       24.1 secs

     total energy              =     -35.51477792 Ry
     estimated scf accuracy    <       0.00000795 Ry

     iteration # 15     ecut=    75.00 Ry     beta= 0.70
     Davidson diagonalization with overlap
     ethr =  5.79E-09,  avg # of iterations =  3.7

     negative rho (up, down):  1.205E-04 0.000E+00

     total cpu time spent up to now is       25.1 secs

     total energy              =     -35.51477801 Ry
     estimated scf accuracy    <       0.00000082 Ry

     iteration # 16     ecut=    75.00 Ry     beta= 0.70
     Davidson diagonalization with overlap
     ethr =  5.12E-09,  avg # of iterations =  6.4

     negative rho (up, down):  1.195E-04 0.000E+00

     total cpu time spent up to now is       26.5 secs

     total energy              =     -35.51477748 Ry
     estimated scf accuracy    <       0.00000462 Ry

     iteration # 17     ecut=    75.00 Ry     beta= 0.70
     Davidson diagonalization with overlap
     ethr =  5.12E-09,  avg # of iterations =  4.9

     negative rho (up, down):  1.194E-04 0.000E+00

     total cpu time spent up to now is       27.5 secs

     total energy              =     -35.51477861 Ry
     estimated scf accuracy    <       0.00000007 Ry

     iteration # 18     ecut=    75.00 Ry     beta= 0.70
     Davidson diagonalization with overlap
     ethr =  4.11E-10,  avg # of iterations =  5.5

     negative rho (up, down):  1.195E-04 0.000E+00

     total cpu time spent up to now is       28.8 secs

     total energy              =     -35.51477866 Ry
     estimated scf accuracy    <       0.00000019 Ry

     iteration # 19     ecut=    75.00 Ry     beta= 0.70
     Davidson diagonalization with overlap
     ethr =  4.11E-10,  avg # of iterations =  1.2

     negative rho (up, down):  1.196E-04 0.000E+00

     total cpu time spent up to now is       29.5 secs

     total energy              =     -35.51477863 Ry
     estimated scf accuracy    <       0.00000009 Ry

     iteration # 20     ecut=    75.00 Ry     beta= 0.70
     Davidson diagonalization with overlap
     ethr =  4.11E-10,  avg # of iterations =  2.4

     negative rho (up, down):  1.196E-04 0.000E+00

     total cpu time spent up to now is       30.3 secs

     End of self-consistent calculation

          k = 0.0000 0.0000 0.0000 (  5827 PWs)   bands (ev):

   -29.6594 -21.9642 -21.9642 -16.6787  -9.3728  -9.3728  -4.9021   3.6055
     4.1148   4.1969   5.1138   6.0304

          k = 0.0000 0.0962 0.0000 (  5879 PWs)   bands (ev):

   -29.6450 -22.2418 -22.1048 -16.4990  -9.1192  -8.7558  -4.7712   3.1715
     4.2065   4.3161   5.1922   6.0266

          k = 0.0000 0.1925 0.0000 (  5881 PWs)   bands (ev):

   -29.6047 -22.9123 -22.4770 -15.9526  -8.3996  -7.0844  -4.4032   1.3394
     4.4850   4.8554   5.1573   6.2473

          k = 0.0000 0.2887 0.0000 (  5891 PWs)   bands (ev):

   -29.5466 -23.6823 -22.9593 -15.0397  -7.3060  -4.7099  -3.9513  -1.0440
     3.5517   5.9779   6.1451   6.4362

          k = 0.0000 0.3849 0.0000 (  5869 PWs)   bands (ev):

   -29.4844 -24.3393 -23.4148 -13.7998  -5.9999  -4.5556  -2.1674  -1.9671
     2.4952   4.0015   6.7469   7.5161

          k = 0.0000 0.4811 0.0000 (  5815 PWs)   bands (ev):

   -29.4360 -24.7687 -23.7339 -12.3779  -6.7749  -4.3328  -1.4936   0.7931
     1.5543   1.6666   5.3134   9.3190

          k = 0.0000-0.5774 0.0000 (  5814 PWs)   bands (ev):

   -29.4176 -24.9169 -23.8481 -11.4964  -7.8932  -3.5425  -0.6434   0.1240
     1.0999   2.7393   3.9463  10.8972

          k = 0.0833 0.1443 0.0000 (  5871 PWs)   bands (ev):

   -29.6169 -22.7764 -22.2932 -16.1359  -8.6629  -7.5895  -4.5194   1.9932
     4.5315   4.6202   5.0014   6.0496

          k = 0.0833 0.2406 0.0000 (  5868 PWs)   bands (ev):

   -29.5614 -23.6165 -22.5728 -15.4054  -7.8210  -5.5398  -4.0667  -0.0632
     3.4420   5.5297   5.6746   6.7046

          k = 0.0833 0.3368 0.0000 (  5851 PWs)   bands (ev):

   -29.4839 -24.4661 -22.8751 -14.3241  -6.6575  -3.9097  -2.9046  -2.0858
     2.2232   4.8589   6.8629   6.9273

          k = 0.0833 0.4330 0.0000 (  5827 PWs)   bands (ev):

   -29.4003 -25.1374 -23.1214 -12.9668  -5.7870  -5.0032  -2.0309  -0.3200
     1.3517   2.5395   6.9588   8.6048

          k = 0.0833 0.5292 0.0000 (  5816 PWs)   bands (ev):

   -29.3421 -25.5086 -23.2574 -11.6492  -7.4304  -3.8885  -1.1297   0.0347
     0.5260   2.7178   5.4632  10.4340

          k = 0.1667 0.2887 0.0000 (  5853 PWs)   bands (ev):

   -29.4721 -24.6021 -22.5705 -14.5038  -6.9897  -3.7572  -3.1051  -1.8476
     1.7419   5.1363   6.6675   6.6978

          k = 0.1667 0.3849 0.0000 (  5823 PWs)   bands (ev):

   -29.3296 -25.5392 -22.5609 -13.2867  -5.8921  -4.2130  -2.9173  -0.8919
     0.9087   2.9998   7.9467   8.2487

          k = 0.1667 0.4811 0.0000 (  5806 PWs)   bands (ev):

   -29.1655 -26.2330 -22.5555 -11.9029  -6.2876  -4.5256  -2.5275  -0.6979
     0.7957   2.9322   7.8383  10.0577

          k = 0.1667 0.5774 0.0000 (  5806 PWs)   bands (ev):

   -29.0832 -26.5000 -22.5540 -11.0630  -7.3579  -3.7411  -2.3382  -0.5895
    -0.5503   4.7706   6.5054  11.4892

          k = 0.2500 0.4330 0.0000 (  5808 PWs)   bands (ev):

   -29.0585 -26.5382 -22.2776 -12.0124  -5.2609  -4.7745  -3.7966  -0.8542
     0.9008   3.0413   9.1778  10.0341

          k = 0.2500 0.5292 0.0000 (  5811 PWs)   bands (ev):

   -28.7379 -27.2519 -22.1157 -10.8380  -6.4509  -4.2699  -3.7064  -1.2341
    -0.4299   5.7501   8.5953  11.0540

          k = 0.3333 0.5774 0.0000 (  5808 PWs)   bands (ev):

   -28.0985 -28.0985 -21.9516 -10.3350  -5.8033  -5.8033  -2.5612  -2.5612
    -0.5182   8.1286   9.0757   9.0757

     the Fermi energy is     0.4571 ev

!    total energy              =     -35.51477863 Ry
     estimated scf accuracy    <          7.3E-09 Ry
     smearing contrib. (-TS)   =       0.00047767 Ry
     internal energy E=F+TS    =     -35.51525631 Ry

     The total energy is F=E-TS. E is the sum of the following terms:
     one-electron contribution =    -617.20909366 Ry
     hartree contribution      =     312.03112005 Ry
     xc contribution           =     -19.65887266 Ry
     ewald contribution        =     289.32158996 Ry

     convergence has been achieved in  20 iterations

     negative rho (up, down):  1.196E-04 0.000E+00

     Forces acting on atoms (cartesian axes, Ry/au):

     atom    1 type  1   force =     0.00000000   -0.00000000  -23.98097300
     atom    2 type  1   force =     0.00000000    0.00000000   -0.42669823
     atom    3 type  1   force =     0.00000000    0.00000000    0.42671008
     atom    4 type  1   force =     0.00000000   -0.00000000   23.98096115

     Total force =    33.919577     Total SCF correction =     0.000125


     Computing stress (Cartesian axis) and pressure


     negative rho (up, down):  1.196E-04 0.000E+00
          total   stress  (Ry/bohr**3)                   (kbar)     P=     2875.63
   0.00766055   0.00000000   0.00000000         1126.91        0.00        0.00
   0.00000000   0.00766055   0.00000000            0.00     1126.91        0.00
   0.00000000   0.00000000   0.04332336            0.00        0.00     6373.09


     Writing all to output data dir /run/media/rfa/SATA/Skripsi/DFT/Graphene-copy/tmp/gr-ab-2L.save/ :
     XML data file, charge density, pseudopotentials, collected wavefunctions

     init_run     :      0.92s CPU      0.83s WALL (       1 calls)
     electrons    :     53.13s CPU     29.43s WALL (       1 calls)
     forces       :      0.18s CPU      0.12s WALL (       1 calls)
     stress       :      0.67s CPU      0.41s WALL (       1 calls)

     Called by init_run:
     wfcinit      :      0.62s CPU      0.35s WALL (       1 calls)
     potinit      :      0.03s CPU      0.03s WALL (       1 calls)
     hinit0       :      0.22s CPU      0.39s WALL (       1 calls)

     Called by electrons:
     c_bands      :     47.28s CPU     25.90s WALL (      20 calls)
     sum_band     :      4.93s CPU      2.70s WALL (      20 calls)
     v_of_rho     :      0.32s CPU      0.33s WALL (      21 calls)
     newd         :      0.33s CPU      0.31s WALL (      21 calls)
     mix_rho      :      0.23s CPU      0.15s WALL (      20 calls)

     Called by c_bands:
     init_us_2    :      1.23s CPU      0.63s WALL (     817 calls)
     cegterg      :     45.31s CPU     24.78s WALL (     384 calls)

     Called by *egterg:
     cdiaghg      :      3.03s CPU      1.59s WALL (    3059 calls)
     h_psi        :     32.96s CPU     18.29s WALL (    3078 calls)
     s_psi        :      1.23s CPU      0.65s WALL (    3078 calls)
     g_psi        :      0.54s CPU      0.29s WALL (    2675 calls)

     Called by h_psi:
     h_psi:calbec :      2.89s CPU      1.53s WALL (    3078 calls)
     vloc_psi     :     27.83s CPU     15.55s WALL (    3078 calls)
     add_vuspsi   :      1.85s CPU      0.97s WALL (    3078 calls)

     General routines
     calbec       :      3.51s CPU      1.86s WALL (    3781 calls)
     fft          :      0.35s CPU      0.53s WALL (     256 calls)
     ffts         :      0.01s CPU      0.01s WALL (      20 calls)
     fftw         :     25.81s CPU     14.53s WALL (   44434 calls)

     Parallel routines

     PWSCF        :     55.04s CPU     31.26s WALL


   This run was terminated on:  14:53:55  16Apr2025            

=------------------------------------------------------------------------------=
   JOB DONE.
=------------------------------------------------------------------------------=
