
     Program PWSCF v.7.4.1 starts on 16Apr2025 at 14:52:49 

     This program is part of the open-source Quantum ESPRESSO suite
     for quantum simulation of materials; please cite
         "P. Giannozzi et al., J. Phys.:Condens. Matter 21 395502 (2009);
         "P. Giannozzi et al., J. Phys.:Condens. Matter 29 465901 (2017);
         "P. Giannozzi et al., J. Chem. Phys. 152 154105 (2020);
          URL http://www.quantum-espresso.org", 
     in publications or presentations arising from this work. More details at
     http://www.quantum-espresso.org/quote

     Parallel version (MPI), running on     7 processors

     MPI processes distributed on     1 nodes
     13312 MiB available memory on the printing compute node when the environment starts

     Waiting for input...
     Reading input from standard input

     Current dimensions of program PWSCF are:
     Max number of different atomic species (ntypx) = 10
     Max number of k-points (npk) =  40000
     Max angular momentum in pseudopotentials (lmaxx) =  4

     R & G space division:  proc/nbgrp/npool/nimage =       7
     Subspace diagonalization in iterative solution of the eigenvalue problem:
     a serial algorithm will be used


     Parallelization info
     --------------------
     sticks:   dense  smooth     PW     G-vecs:    dense   smooth      PW
     Min          60      60     17                 6028     6028    1003
     Max          61      61     18                 6053     6053    1030
     Sum         421     421    121                42223    42223    7091

     Using Slab Decomposition



     bravais-lattice index     =            4
     lattice parameter (alat)  =       4.6561  a.u.
     unit-cell volume          =     532.1899 (a.u.)^3
     number of atoms/cell      =            4
     number of atomic types    =            1
     number of electrons       =        16.00
     number of Kohn-Sham states=           12
     kinetic-energy cutoff     =      70.0000  Ry
     charge density cutoff     =     280.0000  Ry
     scf convergence threshold =      1.0E-08
     mixing beta               =       0.7000
     number of iterations used =            8  plain     mixing
     Exchange-correlation= PBE
                           (   1   4   3   4   0   0   0)

     celldm(1)=   4.656107  celldm(2)=   0.000000  celldm(3)=   6.087896
     celldm(4)=   0.000000  celldm(5)=   0.000000  celldm(6)=   0.000000

     crystal axes: (cart. coord. in units of alat)
               a(1) = (   1.000000   0.000000   0.000000 )  
               a(2) = (  -0.500000   0.866025   0.000000 )  
               a(3) = (   0.000000   0.000000   6.087896 )  

     reciprocal axes: (cart. coord. in units 2 pi/alat)
               b(1) = (  1.000000  0.577350 -0.000000 )  
               b(2) = (  0.000000  1.154701  0.000000 )  
               b(3) = (  0.000000 -0.000000  0.164260 )  


     PseudoPot. # 1 for C  read from file:
     /run/media/rfa/SATA/Skripsi/DFT/Graphene-copy/pseudo/C.pbe-n-rrkjus_psl.0.1.UPF
     MD5 check sum: 96a6a315177d77e6c95bf6fd3870f9e3
     Pseudo is Ultrasoft + core correction, Zval =  4.0
     Generated using &quot;atomic&quot; code by A. Dal Corso  v.6.3MaX
     Using radial grid of 1073 points,  4 beta functions with: 
                l(1) =   0
                l(2) =   0
                l(3) =   1
                l(4) =   1
     Q(r) pseudized with 0 coefficients 


     atomic species   valence    mass     pseudopotential
     C                 4.00    12.01070     C ( 1.00)

      6 Sym. Ops. (no inversion) found



   Cartesian axes

     site n.     atom                  positions (alat units)
         1        C      tau(   1) = (   0.0000000   0.5773503   3.0439478  )
         2        C      tau(   2) = (   0.5000000   0.2886751   3.0439478  )
         3        C      tau(   3) = (   0.0000000   0.0000000   3.2468777  )
         4        C      tau(   4) = (   0.0000000   0.5773503   3.2468777  )

     number of k points=    19  Marzari-Vanderbilt smearing, width (Ry)=  0.0200
                       cart. coord. in units 2pi/alat
        k(    1) = (   0.0000000   0.0000000   0.0000000), wk =   0.0138889
        k(    2) = (   0.0000000   0.0962250   0.0000000), wk =   0.0833333
        k(    3) = (   0.0000000   0.1924501   0.0000000), wk =   0.0833333
        k(    4) = (   0.0000000   0.2886751   0.0000000), wk =   0.0833333
        k(    5) = (   0.0000000   0.3849002   0.0000000), wk =   0.0833333
        k(    6) = (   0.0000000   0.4811252   0.0000000), wk =   0.0833333
        k(    7) = (   0.0000000  -0.5773503   0.0000000), wk =   0.0416667
        k(    8) = (   0.0833333   0.1443376   0.0000000), wk =   0.0833333
        k(    9) = (   0.0833333   0.2405626   0.0000000), wk =   0.1666667
        k(   10) = (   0.0833333   0.3367877   0.0000000), wk =   0.1666667
        k(   11) = (   0.0833333   0.4330127   0.0000000), wk =   0.1666667
        k(   12) = (   0.0833333   0.5292377   0.0000000), wk =   0.1666667
        k(   13) = (   0.1666667   0.2886751   0.0000000), wk =   0.0833333
        k(   14) = (   0.1666667   0.3849002   0.0000000), wk =   0.1666667
        k(   15) = (   0.1666667   0.4811252   0.0000000), wk =   0.1666667
        k(   16) = (   0.1666667   0.5773503   0.0000000), wk =   0.0833333
        k(   17) = (   0.2500000   0.4330127   0.0000000), wk =   0.0833333
        k(   18) = (   0.2500000   0.5292377   0.0000000), wk =   0.1666667
        k(   19) = (   0.3333333   0.5773503   0.0000000), wk =   0.0277778

     Dense  grid:    42223 G-vectors     FFT dimensions: (  25,  25, 160)

     Estimated max dynamical RAM per process >      11.95 MB

     Estimated total dynamical RAM >      83.65 MB

     Check: negative core charge=   -0.000004

     Initial potential from superposition of free atoms

     starting charge      15.9998, renormalised to      16.0000

     negative rho (up, down):  4.232E-05 0.000E+00
     Starting wfcs are   16 randomized atomic wfcs

     total cpu time spent up to now is        1.1 secs

     per-process dynamical memory:    13.3 Mb

     Self-consistent Calculation

     iteration #  1     ecut=    70.00 Ry     beta= 0.70
     Davidson diagonalization with overlap
     ethr =  1.00E-02,  avg # of iterations =  8.0

     negative rho (up, down):  6.743E-06 0.000E+00

     total cpu time spent up to now is        3.1 secs

     total energy              =     -32.68334345 Ry
     estimated scf accuracy    <       6.66554888 Ry

     iteration #  2     ecut=    70.00 Ry     beta= 0.70
     Davidson diagonalization with overlap
     ethr =  1.00E-02,  avg # of iterations =  5.4

     negative rho (up, down):  1.179E-07 0.000E+00

     total cpu time spent up to now is        4.5 secs

     total energy              =     -34.59225898 Ry
     estimated scf accuracy    <       4.45694483 Ry

     iteration #  3     ecut=    70.00 Ry     beta= 0.70
     Davidson diagonalization with overlap
     ethr =  1.00E-02,  avg # of iterations =  2.9

     negative rho (up, down):  7.251E-07 0.000E+00

     total cpu time spent up to now is        5.3 secs

     total energy              =     -35.24227259 Ry
     estimated scf accuracy    <       0.12404689 Ry

     iteration #  4     ecut=    70.00 Ry     beta= 0.70
     Davidson diagonalization with overlap
     c_bands:  1 eigenvalues not converged
     ethr =  7.75E-04,  avg # of iterations = 11.4

     negative rho (up, down):  4.829E-06 0.000E+00

     total cpu time spent up to now is        7.4 secs

     total energy              =     -35.50311564 Ry
     estimated scf accuracy    <       0.11060835 Ry

     iteration #  5     ecut=    70.00 Ry     beta= 0.70
     Davidson diagonalization with overlap
     ethr =  6.91E-04,  avg # of iterations =  4.2

     negative rho (up, down):  4.698E-05 0.000E+00

     total cpu time spent up to now is        8.4 secs

     total energy              =     -35.50062830 Ry
     estimated scf accuracy    <       0.02664554 Ry

     iteration #  6     ecut=    70.00 Ry     beta= 0.70
     Davidson diagonalization with overlap
     c_bands:  2 eigenvalues not converged
     c_bands:  1 eigenvalues not converged
     ethr =  1.67E-04,  avg # of iterations = 11.4

     negative rho (up, down):  1.075E-04 0.000E+00

     total cpu time spent up to now is       10.0 secs

     total energy              =     -35.51079086 Ry
     estimated scf accuracy    <       0.00132862 Ry

     iteration #  7     ecut=    70.00 Ry     beta= 0.70
     Davidson diagonalization with overlap
     c_bands:  2 eigenvalues not converged
     c_bands:  2 eigenvalues not converged
     c_bands:  1 eigenvalues not converged
     c_bands:  3 eigenvalues not converged
     c_bands:  1 eigenvalues not converged
     c_bands:  1 eigenvalues not converged
     c_bands:  1 eigenvalues not converged
     c_bands:  1 eigenvalues not converged
     c_bands:  1 eigenvalues not converged
     c_bands:  2 eigenvalues not converged
     c_bands:  1 eigenvalues not converged
     c_bands:  1 eigenvalues not converged
     c_bands:  2 eigenvalues not converged
     c_bands:  1 eigenvalues not converged
     ethr =  8.30E-06,  avg # of iterations = 19.4

     negative rho (up, down):  9.365E-05 0.000E+00

     total cpu time spent up to now is       13.4 secs

     total energy              =     -35.51435676 Ry
     estimated scf accuracy    <       0.00582730 Ry

     iteration #  8     ecut=    70.00 Ry     beta= 0.70
     Davidson diagonalization with overlap
     c_bands:  1 eigenvalues not converged
     c_bands:  1 eigenvalues not converged
     ethr =  8.30E-06,  avg # of iterations =  5.8

     negative rho (up, down):  1.096E-04 0.000E+00

     total cpu time spent up to now is       14.4 secs

     total energy              =     -35.51394753 Ry
     estimated scf accuracy    <       0.00249197 Ry

     iteration #  9     ecut=    70.00 Ry     beta= 0.70
     Davidson diagonalization with overlap
     ethr =  8.30E-06,  avg # of iterations =  2.3

     negative rho (up, down):  1.192E-04 0.000E+00

     total cpu time spent up to now is       15.3 secs

     total energy              =     -35.51373448 Ry
     estimated scf accuracy    <       0.00088828 Ry

     iteration # 10     ecut=    70.00 Ry     beta= 0.70
     Davidson diagonalization with overlap
     c_bands:  1 eigenvalues not converged
     ethr =  5.55E-06,  avg # of iterations =  6.3

     negative rho (up, down):  1.151E-04 0.000E+00

     total cpu time spent up to now is       16.4 secs

     total energy              =     -35.51397713 Ry
     estimated scf accuracy    <       0.00001539 Ry

     iteration # 11     ecut=    70.00 Ry     beta= 0.70
     Davidson diagonalization with overlap
     c_bands:  2 eigenvalues not converged
     c_bands:  1 eigenvalues not converged
     c_bands:  1 eigenvalues not converged
     c_bands:  1 eigenvalues not converged
     c_bands:  1 eigenvalues not converged
     ethr =  9.62E-08,  avg # of iterations = 15.6

     negative rho (up, down):  1.124E-04 0.000E+00

     total cpu time spent up to now is       19.9 secs

     total energy              =     -35.51411474 Ry
     estimated scf accuracy    <       0.00007106 Ry

     iteration # 12     ecut=    70.00 Ry     beta= 0.70
     Davidson diagonalization with overlap
     ethr =  9.62E-08,  avg # of iterations =  4.5

     negative rho (up, down):  1.134E-04 0.000E+00

     total cpu time spent up to now is       20.9 secs

     total energy              =     -35.51410667 Ry
     estimated scf accuracy    <       0.00002845 Ry

     iteration # 13     ecut=    70.00 Ry     beta= 0.70
     Davidson diagonalization with overlap
     ethr =  9.62E-08,  avg # of iterations =  3.9

     negative rho (up, down):  1.136E-04 0.000E+00

     total cpu time spent up to now is       21.9 secs

     total energy              =     -35.51411087 Ry
     estimated scf accuracy    <       0.00000254 Ry

     iteration # 14     ecut=    70.00 Ry     beta= 0.70
     Davidson diagonalization with overlap
     ethr =  1.58E-08,  avg # of iterations =  4.9

     negative rho (up, down):  1.137E-04 0.000E+00

     total cpu time spent up to now is       23.1 secs

     total energy              =     -35.51411248 Ry
     estimated scf accuracy    <       0.00000102 Ry

     iteration # 15     ecut=    70.00 Ry     beta= 0.70
     Davidson diagonalization with overlap
     ethr =  6.36E-09,  avg # of iterations =  3.0

     negative rho (up, down):  1.138E-04 0.000E+00

     total cpu time spent up to now is       24.0 secs

     total energy              =     -35.51411249 Ry
     estimated scf accuracy    <       0.00000095 Ry

     iteration # 16     ecut=    70.00 Ry     beta= 0.70
     Davidson diagonalization with overlap
     ethr =  5.92E-09,  avg # of iterations =  1.8

     negative rho (up, down):  1.139E-04 0.000E+00

     total cpu time spent up to now is       24.8 secs

     total energy              =     -35.51411256 Ry
     estimated scf accuracy    <       0.00000039 Ry

     iteration # 17     ecut=    70.00 Ry     beta= 0.70
     Davidson diagonalization with overlap
     ethr =  2.42E-09,  avg # of iterations =  3.9

     negative rho (up, down):  1.139E-04 0.000E+00

     total cpu time spent up to now is       25.8 secs

     total energy              =     -35.51411268 Ry
     estimated scf accuracy    <       0.00000021 Ry

     iteration # 18     ecut=    70.00 Ry     beta= 0.70
     Davidson diagonalization with overlap
     ethr =  1.30E-09,  avg # of iterations =  3.2

     negative rho (up, down):  1.140E-04 0.000E+00

     total cpu time spent up to now is       26.7 secs

     total energy              =     -35.51411271 Ry
     estimated scf accuracy    <       0.00000015 Ry

     iteration # 19     ecut=    70.00 Ry     beta= 0.70
     Davidson diagonalization with overlap
     ethr =  9.12E-10,  avg # of iterations =  2.1

     negative rho (up, down):  1.140E-04 0.000E+00

     total cpu time spent up to now is       27.5 secs

     total energy              =     -35.51411273 Ry
     estimated scf accuracy    <       0.00000011 Ry

     iteration # 20     ecut=    70.00 Ry     beta= 0.70
     Davidson diagonalization with overlap
     ethr =  6.62E-10,  avg # of iterations =  1.7

     negative rho (up, down):  1.140E-04 0.000E+00

     total cpu time spent up to now is       28.3 secs

     total energy              =     -35.51411273 Ry
     estimated scf accuracy    <       0.00000011 Ry

     iteration # 21     ecut=    70.00 Ry     beta= 0.70
     Davidson diagonalization with overlap
     ethr =  6.62E-10,  avg # of iterations =  1.3

     negative rho (up, down):  1.139E-04 0.000E+00

     total cpu time spent up to now is       29.1 secs

     total energy              =     -35.51411273 Ry
     estimated scf accuracy    <       0.00000012 Ry

     iteration # 22     ecut=    70.00 Ry     beta= 0.70
     Davidson diagonalization with overlap
     ethr =  6.62E-10,  avg # of iterations =  1.1

     negative rho (up, down):  1.139E-04 0.000E+00

     total cpu time spent up to now is       29.8 secs

     total energy              =     -35.51411272 Ry
     estimated scf accuracy    <       0.00000010 Ry

     iteration # 23     ecut=    70.00 Ry     beta= 0.70
     Davidson diagonalization with overlap
     ethr =  6.54E-10,  avg # of iterations =  1.2

     negative rho (up, down):  1.139E-04 0.000E+00

     total cpu time spent up to now is       30.6 secs

     total energy              =     -35.51411272 Ry
     estimated scf accuracy    <       0.00000005 Ry

     iteration # 24     ecut=    70.00 Ry     beta= 0.70
     Davidson diagonalization with overlap
     ethr =  3.39E-10,  avg # of iterations =  2.2

     negative rho (up, down):  1.138E-04 0.000E+00

     total cpu time spent up to now is       31.5 secs

     total energy              =     -35.51411272 Ry
     estimated scf accuracy    <       0.00000002 Ry

     iteration # 25     ecut=    70.00 Ry     beta= 0.70
     Davidson diagonalization with overlap
     ethr =  1.43E-10,  avg # of iterations =  4.9

     negative rho (up, down):  1.138E-04 0.000E+00

     total cpu time spent up to now is       32.6 secs

     End of self-consistent calculation

          k = 0.0000 0.0000 0.0000 (  5283 PWs)   bands (ev):

   -29.6598 -21.9644 -21.9644 -16.6787  -9.3730  -9.3730  -4.9028   3.5846
     4.0121   4.1766   5.0289   5.9304

          k = 0.0000 0.0962 0.0000 (  5259 PWs)   bands (ev):

   -29.6454 -22.2420 -22.1049 -16.4990  -9.1194  -8.7560  -4.7719   3.1695
     4.1659   4.2202   5.1184   5.9802

          k = 0.0000 0.1925 0.0000 (  5241 PWs)   bands (ev):

   -29.6050 -22.9124 -22.4772 -15.9525  -8.3997  -7.0845  -4.4039   1.3399
     4.4740   4.8081   5.0537   6.1580

          k = 0.0000 0.2887 0.0000 (  5255 PWs)   bands (ev):

   -29.5469 -23.6825 -22.9596 -15.0397  -7.3061  -4.7100  -3.9519  -1.0439
     3.5510   5.9293   6.0519   6.4343

          k = 0.0000 0.3849 0.0000 (  5259 PWs)   bands (ev):

   -29.4847 -24.3395 -23.4152 -13.7997  -6.0001  -4.5556  -2.1679  -1.9672
     2.4949   4.0017   6.7469   7.4676

          k = 0.0000 0.4811 0.0000 (  5274 PWs)   bands (ev):

   -29.4364 -24.7688 -23.7344 -12.3778  -6.7750  -4.3332  -1.4943   0.7931
     1.5541   1.6667   5.3133   9.2777

          k = 0.0000-0.5774 0.0000 (  5280 PWs)   bands (ev):

   -29.4179 -24.9171 -23.8486 -11.4962  -7.8934  -3.5431  -0.6441   0.1242
     1.1000   2.7395   3.9461  10.8848

          k = 0.0833 0.1443 0.0000 (  5259 PWs)   bands (ev):

   -29.6172 -22.7766 -22.2935 -16.1360  -8.6630  -7.5896  -4.5200   1.9935
     4.4985   4.5760   4.9130   5.9639

          k = 0.0833 0.2406 0.0000 (  5244 PWs)   bands (ev):

   -29.5618 -23.6166 -22.5731 -15.4054  -7.8211  -5.5399  -4.0672  -0.0629
     3.4412   5.4838   5.5786   6.6140

          k = 0.0833 0.3368 0.0000 (  5259 PWs)   bands (ev):

   -29.4842 -24.4663 -22.8754 -14.3240  -6.6577  -3.9100  -2.9047  -2.0860
     2.2226   4.8590   6.8029   6.8687

          k = 0.0833 0.4330 0.0000 (  5262 PWs)   bands (ev):

   -29.4006 -25.1376 -23.1218 -12.9666  -5.7871  -5.0033  -2.0315  -0.3200
     1.3513   2.5397   6.9581   8.5552

          k = 0.0833 0.5292 0.0000 (  5288 PWs)   bands (ev):

   -29.3424 -25.5089 -23.2579 -11.6490  -7.4306  -3.8889  -1.1303   0.0345
     0.5262   2.7177   5.4631  10.4073

          k = 0.1667 0.2887 0.0000 (  5266 PWs)   bands (ev):

   -29.4724 -24.6024 -22.5709 -14.5038  -6.9899  -3.7578  -3.1052  -1.8474
     1.7412   5.1363   6.6188   6.6226

          k = 0.1667 0.3849 0.0000 (  5269 PWs)   bands (ev):

   -29.3299 -25.5395 -22.5614 -13.2866  -5.8922  -4.2130  -2.9176  -0.8921
     0.9081   2.9999   7.9072   8.2045

          k = 0.1667 0.4811 0.0000 (  5268 PWs)   bands (ev):

   -29.1658 -26.2332 -22.5560 -11.9027  -6.2876  -4.5258  -2.5278  -0.6986
     0.7958   2.9320   7.8377  10.0187

          k = 0.1667 0.5774 0.0000 (  5260 PWs)   bands (ev):

   -29.0835 -26.5002 -22.5545 -11.0626  -7.3581  -3.7414  -2.3382  -0.5904
    -0.5500   4.7706   6.5052  11.4799

          k = 0.2500 0.4330 0.0000 (  5254 PWs)   bands (ev):

   -29.0588 -26.5384 -22.2780 -12.0121  -5.2609  -4.7746  -3.7968  -0.8550
     0.9010   3.0409   9.1640   9.9940

          k = 0.2500 0.5292 0.0000 (  5276 PWs)   bands (ev):

   -28.7382 -27.2522 -22.1162 -10.8378  -6.4511  -4.2701  -3.7065  -1.2343
    -0.4306   5.7498   8.5950  11.0503

          k = 0.3333 0.5774 0.0000 (  5268 PWs)   bands (ev):

   -28.0988 -28.0988 -21.9521 -10.3346  -5.8035  -5.8035  -2.5612  -2.5612
    -0.5192   8.1281   9.0756   9.0756

     the Fermi energy is     0.4573 ev

!    total energy              =     -35.51411272 Ry
     estimated scf accuracy    <          2.8E-09 Ry
     smearing contrib. (-TS)   =       0.00047673 Ry
     internal energy E=F+TS    =     -35.51458945 Ry

     The total energy is F=E-TS. E is the sum of the following terms:
     one-electron contribution =    -617.20882070 Ry
     hartree contribution      =     312.03160853 Ry
     xc contribution           =     -19.65896724 Ry
     ewald contribution        =     289.32158996 Ry

     convergence has been achieved in  25 iterations

     negative rho (up, down):  1.138E-04 0.000E+00

     Forces acting on atoms (cartesian axes, Ry/au):

     atom    1 type  1   force =     0.00000000   -0.00000000  -23.98444702
     atom    2 type  1   force =     0.00000000    0.00000000   -0.42669001
     atom    3 type  1   force =     0.00000000    0.00000000    0.42668804
     atom    4 type  1   force =     0.00000000   -0.00000000   23.98444899

     Total force =    33.924499     Total SCF correction =     0.000136


     Computing stress (Cartesian axis) and pressure


     negative rho (up, down):  1.138E-04 0.000E+00
          total   stress  (Ry/bohr**3)                   (kbar)     P=     2874.59
   0.00765412   0.00000000   0.00000000         1125.96        0.00        0.00
   0.00000000   0.00765412   0.00000000            0.00     1125.96        0.00
   0.00000000   0.00000000   0.04331497            0.00        0.00     6371.85


     Writing all to output data dir /run/media/rfa/SATA/Skripsi/DFT/Graphene-copy/tmp/gr-ab-2L.save/ :
     XML data file, charge density, pseudopotentials, collected wavefunctions

     init_run     :      1.06s CPU      1.00s WALL (       1 calls)
     electrons    :     56.38s CPU     31.46s WALL (       1 calls)
     forces       :      0.17s CPU      0.11s WALL (       1 calls)
     stress       :      0.48s CPU      0.31s WALL (       1 calls)

     Called by init_run:
     wfcinit      :      0.66s CPU      0.37s WALL (       1 calls)
     potinit      :      0.02s CPU      0.03s WALL (       1 calls)
     hinit0       :      0.30s CPU      0.52s WALL (       1 calls)

     Called by electrons:
     c_bands      :     48.77s CPU     26.90s WALL (      25 calls)
     sum_band     :      6.49s CPU      3.57s WALL (      25 calls)
     v_of_rho     :      0.38s CPU      0.40s WALL (      26 calls)
     newd         :      0.38s CPU      0.36s WALL (      26 calls)
     mix_rho      :      0.27s CPU      0.17s WALL (      25 calls)

     Called by c_bands:
     init_us_2    :      1.24s CPU      0.67s WALL (    1007 calls)
     cegterg      :     46.71s CPU     25.72s WALL (     475 calls)

     Called by *egterg:
     cdiaghg      :      2.92s CPU      1.58s WALL (    2990 calls)
     h_psi        :     35.86s CPU     19.88s WALL (    3009 calls)
     s_psi        :      1.11s CPU      0.61s WALL (    3009 calls)
     g_psi        :      0.44s CPU      0.23s WALL (    2515 calls)

     Called by h_psi:
     h_psi:calbec :      2.70s CPU      1.43s WALL (    3009 calls)
     vloc_psi     :     31.11s CPU     17.31s WALL (    3009 calls)
     add_vuspsi   :      1.69s CPU      0.91s WALL (    3009 calls)

     General routines
     calbec       :      3.34s CPU      1.77s WALL (    3807 calls)
     fft          :      0.43s CPU      0.66s WALL (     311 calls)
     ffts         :      0.02s CPU      0.01s WALL (      25 calls)
     fftw         :     30.52s CPU     17.06s WALL (   46060 calls)

     Parallel routines

     PWSCF        :     58.28s CPU     33.57s WALL


   This run was terminated on:  14:53:22  16Apr2025            

=------------------------------------------------------------------------------=
   JOB DONE.
=------------------------------------------------------------------------------=
