
     Program PWSCF v.7.4.1 starts on 16Apr2025 at 14:50:39 

     This program is part of the open-source Quantum ESPRESSO suite
     for quantum simulation of materials; please cite
         "P. Giannozzi et al., J. Phys.:Condens. Matter 21 395502 (2009);
         "P. Giannozzi et al., J. Phys.:Condens. Matter 29 465901 (2017);
         "P. Giannozzi et al., J. Chem. Phys. 152 154105 (2020);
          URL http://www.quantum-espresso.org", 
     in publications or presentations arising from this work. More details at
     http://www.quantum-espresso.org/quote

     Parallel version (MPI), running on     7 processors

     MPI processes distributed on     1 nodes
     13345 MiB available memory on the printing compute node when the environment starts

     Waiting for input...
     Reading input from standard input

     Current dimensions of program PWSCF are:
     Max number of different atomic species (ntypx) = 10
     Max number of k-points (npk) =  40000
     Max angular momentum in pseudopotentials (lmaxx) =  4

     R & G space division:  proc/nbgrp/npool/nimage =       7
     Subspace diagonalization in iterative solution of the eigenvalue problem:
     a serial algorithm will be used


     Parallelization info
     --------------------
     sticks:   dense  smooth     PW     G-vecs:    dense   smooth      PW
     Min          21      21      7                 1345     1345     271
     Max          22      22      8                 1372     1372     290
     Sum         151     151     55                 9519     9519    1981

     Using Slab Decomposition



     bravais-lattice index     =            4
     lattice parameter (alat)  =       4.6561  a.u.
     unit-cell volume          =     532.1899 (a.u.)^3
     number of atoms/cell      =            4
     number of atomic types    =            1
     number of electrons       =        16.00
     number of Kohn-Sham states=           12
     kinetic-energy cutoff     =      26.0000  Ry
     charge density cutoff     =     104.0000  Ry
     scf convergence threshold =      1.0E-08
     mixing beta               =       0.7000
     number of iterations used =            8  plain     mixing
     Exchange-correlation= PBE
                           (   1   4   3   4   0   0   0)

     celldm(1)=   4.656107  celldm(2)=   0.000000  celldm(3)=   6.087896
     celldm(4)=   0.000000  celldm(5)=   0.000000  celldm(6)=   0.000000

     crystal axes: (cart. coord. in units of alat)
               a(1) = (   1.000000   0.000000   0.000000 )  
               a(2) = (  -0.500000   0.866025   0.000000 )  
               a(3) = (   0.000000   0.000000   6.087896 )  

     reciprocal axes: (cart. coord. in units 2 pi/alat)
               b(1) = (  1.000000  0.577350 -0.000000 )  
               b(2) = (  0.000000  1.154701  0.000000 )  
               b(3) = (  0.000000 -0.000000  0.164260 )  


     PseudoPot. # 1 for C  read from file:
     /run/media/rfa/SATA/Skripsi/DFT/Graphene-copy/pseudo/C.pbe-n-rrkjus_psl.0.1.UPF
     MD5 check sum: 96a6a315177d77e6c95bf6fd3870f9e3
     Pseudo is Ultrasoft + core correction, Zval =  4.0
     Generated using &quot;atomic&quot; code by A. Dal Corso  v.6.3MaX
     Using radial grid of 1073 points,  4 beta functions with: 
                l(1) =   0
                l(2) =   0
                l(3) =   1
                l(4) =   1
     Q(r) pseudized with 0 coefficients 


     atomic species   valence    mass     pseudopotential
     C                 4.00    12.01070     C ( 1.00)

      6 Sym. Ops. (no inversion) found



   Cartesian axes

     site n.     atom                  positions (alat units)
         1        C      tau(   1) = (   0.0000000   0.5773503   3.0439478  )
         2        C      tau(   2) = (   0.5000000   0.2886751   3.0439478  )
         3        C      tau(   3) = (   0.0000000   0.0000000   3.2468777  )
         4        C      tau(   4) = (   0.0000000   0.5773503   3.2468777  )

     number of k points=    19  Marzari-Vanderbilt smearing, width (Ry)=  0.0200
                       cart. coord. in units 2pi/alat
        k(    1) = (   0.0000000   0.0000000   0.0000000), wk =   0.0138889
        k(    2) = (   0.0000000   0.0962250   0.0000000), wk =   0.0833333
        k(    3) = (   0.0000000   0.1924501   0.0000000), wk =   0.0833333
        k(    4) = (   0.0000000   0.2886751   0.0000000), wk =   0.0833333
        k(    5) = (   0.0000000   0.3849002   0.0000000), wk =   0.0833333
        k(    6) = (   0.0000000   0.4811252   0.0000000), wk =   0.0833333
        k(    7) = (   0.0000000  -0.5773503   0.0000000), wk =   0.0416667
        k(    8) = (   0.0833333   0.1443376   0.0000000), wk =   0.0833333
        k(    9) = (   0.0833333   0.2405626   0.0000000), wk =   0.1666667
        k(   10) = (   0.0833333   0.3367877   0.0000000), wk =   0.1666667
        k(   11) = (   0.0833333   0.4330127   0.0000000), wk =   0.1666667
        k(   12) = (   0.0833333   0.5292377   0.0000000), wk =   0.1666667
        k(   13) = (   0.1666667   0.2886751   0.0000000), wk =   0.0833333
        k(   14) = (   0.1666667   0.3849002   0.0000000), wk =   0.1666667
        k(   15) = (   0.1666667   0.4811252   0.0000000), wk =   0.1666667
        k(   16) = (   0.1666667   0.5773503   0.0000000), wk =   0.0833333
        k(   17) = (   0.2500000   0.4330127   0.0000000), wk =   0.0833333
        k(   18) = (   0.2500000   0.5292377   0.0000000), wk =   0.1666667
        k(   19) = (   0.3333333   0.5773503   0.0000000), wk =   0.0277778

     Dense  grid:     9519 G-vectors     FFT dimensions: (  15,  15,  96)

     Estimated max dynamical RAM per process >       2.85 MB

     Estimated total dynamical RAM >      19.95 MB

     Check: negative core charge=   -0.000072

     Initial potential from superposition of free atoms

     starting charge      15.9998, renormalised to      16.0000

     negative rho (up, down):  6.779E-03 0.000E+00
     Starting wfcs are   16 randomized atomic wfcs

     total cpu time spent up to now is        0.6 secs

     per-process dynamical memory:     8.5 Mb

     Self-consistent Calculation

     iteration #  1     ecut=    26.00 Ry     beta= 0.70
     Davidson diagonalization with overlap
     ethr =  1.00E-02,  avg # of iterations =  4.8

     negative rho (up, down):  6.841E-02 0.000E+00

     total cpu time spent up to now is        0.9 secs

     total energy              =     -32.95945509 Ry
     estimated scf accuracy    <       5.19275437 Ry

     iteration #  2     ecut=    26.00 Ry     beta= 0.70
     Davidson diagonalization with overlap
     ethr =  1.00E-02,  avg # of iterations =  6.5

     negative rho (up, down):  1.099E-03 0.000E+00

     total cpu time spent up to now is        1.2 secs

     total energy              =     -33.04388397 Ry
     estimated scf accuracy    <       6.14717065 Ry

     iteration #  3     ecut=    26.00 Ry     beta= 0.70
     Davidson diagonalization with overlap
     ethr =  1.00E-02,  avg # of iterations =  5.2

     negative rho (up, down):  5.022E-03 0.000E+00

     total cpu time spent up to now is        1.5 secs

     total energy              =     -34.95400750 Ry
     estimated scf accuracy    <       0.29730059 Ry

     iteration #  4     ecut=    26.00 Ry     beta= 0.70
     Davidson diagonalization with overlap
     ethr =  1.86E-03,  avg # of iterations =  2.3

     negative rho (up, down):  1.296E-02 0.000E+00

     total cpu time spent up to now is        1.6 secs

     total energy              =     -34.93518904 Ry
     estimated scf accuracy    <       0.12419366 Ry

     iteration #  5     ecut=    26.00 Ry     beta= 0.70
     Davidson diagonalization with overlap
     ethr =  7.76E-04,  avg # of iterations =  3.3

     negative rho (up, down):  2.479E-02 0.000E+00

     total cpu time spent up to now is        1.8 secs

     total energy              =     -34.92539749 Ry
     estimated scf accuracy    <       0.03818847 Ry

     iteration #  6     ecut=    26.00 Ry     beta= 0.70
     Davidson diagonalization with overlap
     ethr =  2.39E-04,  avg # of iterations =  8.7

     negative rho (up, down):  4.004E-02 0.000E+00

     total cpu time spent up to now is        2.1 secs

     total energy              =     -34.92381276 Ry
     estimated scf accuracy    <       0.01082997 Ry

     iteration #  7     ecut=    26.00 Ry     beta= 0.70
     Davidson diagonalization with overlap
     c_bands:  1 eigenvalues not converged
     ethr =  6.77E-05,  avg # of iterations =  9.5

     negative rho (up, down):  4.422E-02 0.000E+00

     total cpu time spent up to now is        2.5 secs

     total energy              =     -34.92560389 Ry
     estimated scf accuracy    <       0.00059396 Ry

     iteration #  8     ecut=    26.00 Ry     beta= 0.70
     Davidson diagonalization with overlap
     c_bands:  1 eigenvalues not converged
     c_bands:  1 eigenvalues not converged
     c_bands:  1 eigenvalues not converged
     ethr =  3.71E-06,  avg # of iterations = 12.4

     negative rho (up, down):  4.789E-02 0.000E+00

     total cpu time spent up to now is        2.9 secs

     total energy              =     -34.92552945 Ry
     estimated scf accuracy    <       0.00055525 Ry

     iteration #  9     ecut=    26.00 Ry     beta= 0.70
     Davidson diagonalization with overlap
     c_bands:  1 eigenvalues not converged
     ethr =  3.47E-06,  avg # of iterations = 10.5

     negative rho (up, down):  4.832E-02 0.000E+00

     total cpu time spent up to now is        3.2 secs

     total energy              =     -34.92565099 Ry
     estimated scf accuracy    <       0.00000863 Ry

     iteration # 10     ecut=    26.00 Ry     beta= 0.70
     Davidson diagonalization with overlap
     ethr =  5.39E-08,  avg # of iterations =  4.6

     negative rho (up, down):  4.817E-02 0.000E+00

     total cpu time spent up to now is        3.5 secs

     total energy              =     -34.92565652 Ry
     estimated scf accuracy    <       0.00000329 Ry

     iteration # 11     ecut=    26.00 Ry     beta= 0.70
     Davidson diagonalization with overlap
     ethr =  2.05E-08,  avg # of iterations =  2.9

     negative rho (up, down):  4.808E-02 0.000E+00

     total cpu time spent up to now is        3.7 secs

     total energy              =     -34.92565747 Ry
     estimated scf accuracy    <       0.00000038 Ry

     iteration # 12     ecut=    26.00 Ry     beta= 0.70
     Davidson diagonalization with overlap
     ethr =  2.36E-09,  avg # of iterations =  3.4

     negative rho (up, down):  4.808E-02 0.000E+00

     total cpu time spent up to now is        3.8 secs

     total energy              =     -34.92565759 Ry
     estimated scf accuracy    <       0.00000003 Ry

     iteration # 13     ecut=    26.00 Ry     beta= 0.70
     Davidson diagonalization with overlap
     ethr =  1.95E-10,  avg # of iterations =  4.1

     negative rho (up, down):  4.808E-02 0.000E+00

     total cpu time spent up to now is        3.9 secs

     End of self-consistent calculation

          k = 0.0000 0.0000 0.0000 (  1199 PWs)   bands (ev):

   -29.9405 -22.4496 -22.4496 -15.7118  -9.4308  -9.4308  -5.4073   2.3979
     2.6416   3.7203   4.7594   5.4537

          k = 0.0000 0.0962 0.0000 (  1187 PWs)   bands (ev):

   -29.9263 -22.7088 -22.5659 -15.4731  -9.1870  -8.8135  -5.2675   2.6221
     2.8743   3.8996   4.9227   5.2377

          k = 0.0000 0.1925 0.0000 (  1187 PWs)   bands (ev):

   -29.8869 -23.3534 -22.8890 -14.9384  -8.5084  -7.1629  -4.9074   3.0464
     3.3036   3.5733   4.3591   5.1574

          k = 0.0000 0.2887 0.0000 (  1183 PWs)   bands (ev):

   -29.8311 -24.0959 -23.3253 -13.9355  -7.4663  -4.7868  -4.3961   0.2187
     3.8639   4.5111   4.7159   5.8676

          k = 0.0000 0.3849 0.0000 (  1188 PWs)   bands (ev):

   -29.7770 -24.7419 -23.7413 -12.5622  -6.2066  -4.2626  -2.0539  -2.0462
     3.1073   3.7894   6.0326   6.5887

          k = 0.0000 0.4811 0.0000 (  1198 PWs)   bands (ev):

   -29.7523 -25.1628 -24.0352 -10.8504  -6.3638  -4.5396  -2.0727   0.7426
     1.3452   2.4075   5.1757   8.0259

          k = 0.0000-0.5774 0.0000 (  1194 PWs)   bands (ev):

   -29.7268 -25.2932 -24.1406  -9.4128  -8.0266  -3.8905  -1.4023  -0.1414
     2.0735   2.7766   3.7991  10.2808

          k = 0.0833 0.1443 0.0000 (  1189 PWs)   bands (ev):

   -29.8998 -23.2236 -22.7237 -15.1112  -8.7594  -7.6672  -5.0227   3.0630
     3.3311   4.0540   4.2776   4.8530

          k = 0.0833 0.2406 0.0000 (  1190 PWs)   bands (ev):

   -29.8474 -24.0301 -22.9711 -14.3292  -7.9660  -5.6292  -4.5648   1.7018
     3.3511   4.0164   4.2589   5.3505

          k = 0.0833 0.3368 0.0000 (  1184 PWs)   bands (ev):

   -29.7700 -24.8566 -23.2329 -13.1394  -6.8501  -4.1544  -3.0116  -1.0275
     2.4545   4.6246   5.3324   5.6272

          k = 0.0833 0.4330 0.0000 (  1190 PWs)   bands (ev):

   -29.7025 -25.5101 -23.4533 -11.5872  -5.7122  -4.7370  -2.3001  -0.3160
     1.6849   2.3009   6.7572   7.2907

          k = 0.0833 0.5292 0.0000 (  1200 PWs)   bands (ev):

   -29.6655 -25.8706 -23.5784  -9.7933  -7.2327  -4.1773  -1.7127   0.0511
     0.7005   2.7360   5.4824   9.3491

          k = 0.1667 0.2887 0.0000 (  1184 PWs)   bands (ev):

   -29.7594 -24.9807 -22.9403 -13.3445  -7.1704  -4.1884  -3.2542  -0.0098
     1.3608   4.8708   5.1166   5.3987

          k = 0.1667 0.3849 0.0000 (  1178 PWs)   bands (ev):

   -29.6150 -25.8961 -22.9066 -11.9507  -6.1112  -3.9389  -2.1499  -1.0411
     0.6965   2.7658   6.6270   6.9913

          k = 0.1667 0.4811 0.0000 (  1198 PWs)   bands (ev):

   -29.4850 -26.5836 -22.8872 -10.2690  -5.7828  -4.7208  -2.3844  -1.0524
     0.4697   2.8564   7.7266   8.8170

          k = 0.1667 0.5774 0.0000 (  1196 PWs)   bands (ev):

   -29.4097 -26.8434 -22.8750  -8.7281  -7.4793  -4.0258  -1.8862  -1.3935
    -0.7564   4.6990   6.5122  10.9296

          k = 0.2500 0.4330 0.0000 (  1180 PWs)   bands (ev):

   -29.3673 -26.8732 -22.6061 -10.4422  -5.1532  -3.9844  -3.8008  -1.5043
     0.5846   2.9311   8.2933   8.7993

          k = 0.2500 0.5292 0.0000 (  1200 PWs)   bands (ev):

   -29.0691 -27.5809 -22.4345  -8.6969  -6.1671  -4.1010  -3.9252  -1.7073
    -1.0951   5.6321   8.5133  10.5770

          k = 0.3333 0.5774 0.0000 (  1212 PWs)   bands (ev):

   -28.4416 -28.4414 -22.2633  -7.4864  -5.9190  -5.9182  -2.8556  -2.8552
    -1.3867   7.9194   8.9900   8.9906

     the Fermi energy is     0.5864 ev

!    total energy              =     -34.92565762 Ry
     estimated scf accuracy    <          5.9E-09 Ry
     smearing contrib. (-TS)   =      -0.00089116 Ry
     internal energy E=F+TS    =     -34.92476645 Ry

     The total energy is F=E-TS. E is the sum of the following terms:
     one-electron contribution =    -616.15773913 Ry
     hartree contribution      =     311.48915429 Ry
     xc contribution           =     -19.57777157 Ry
     ewald contribution        =     289.32158996 Ry

     convergence has been achieved in  13 iterations

     negative rho (up, down):  4.808E-02 0.000E+00

     Forces acting on atoms (cartesian axes, Ry/au):

     atom    1 type  1   force =     0.00000000    0.00000000  -26.52889320
     atom    2 type  1   force =     0.00000000    0.00000000   -0.43463084
     atom    3 type  1   force =     0.00000000    0.00000000    0.43374701
     atom    4 type  1   force =     0.00000000   -0.00000000   26.52977704

     Total force =    37.523170     Total SCF correction =     0.000213


     Computing stress (Cartesian axis) and pressure


     negative rho (up, down):  4.808E-02 0.000E+00
          total   stress  (Ry/bohr**3)                   (kbar)     P=     2721.28
   0.00598214  -0.00000000   0.00000000          880.00       -0.00        0.00
  -0.00000000   0.00598214   0.00000000           -0.00      880.00        0.00
   0.00000000   0.00000000   0.04353247            0.00        0.00     6403.85


     Writing all to output data dir /run/media/rfa/SATA/Skripsi/DFT/Graphene-copy/tmp/gr-ab-2L.save/ :
     XML data file, charge density, pseudopotentials, collected wavefunctions

     init_run     :      0.35s CPU      0.46s WALL (       1 calls)
     electrons    :      5.94s CPU      3.33s WALL (       1 calls)
     forces       :      0.02s CPU      0.01s WALL (       1 calls)
     stress       :      0.07s CPU      0.04s WALL (       1 calls)

     Called by init_run:
     wfcinit      :      0.14s CPU      0.09s WALL (       1 calls)
     potinit      :      0.00s CPU      0.00s WALL (       1 calls)
     hinit0       :      0.18s CPU      0.34s WALL (       1 calls)

     Called by electrons:
     c_bands      :      5.21s CPU      2.93s WALL (      13 calls)
     sum_band     :      0.56s CPU      0.31s WALL (      13 calls)
     v_of_rho     :      0.09s CPU      0.05s WALL (      14 calls)
     newd         :      0.04s CPU      0.03s WALL (      14 calls)
     mix_rho      :      0.03s CPU      0.01s WALL (      13 calls)

     Called by c_bands:
     init_us_2    :      0.10s CPU      0.05s WALL (     551 calls)
     cegterg      :      4.97s CPU      2.77s WALL (     247 calls)

     Called by *egterg:
     cdiaghg      :      1.25s CPU      0.66s WALL (    1730 calls)
     h_psi        :      2.96s CPU      1.69s WALL (    1749 calls)
     s_psi        :      0.11s CPU      0.06s WALL (    1749 calls)
     g_psi        :      0.04s CPU      0.02s WALL (    1483 calls)

     Called by h_psi:
     h_psi:calbec :      0.30s CPU      0.18s WALL (    1749 calls)
     vloc_psi     :      2.46s CPU      1.40s WALL (    1749 calls)
     add_vuspsi   :      0.14s CPU      0.07s WALL (    1749 calls)

     General routines
     calbec       :      0.38s CPU      0.21s WALL (    2319 calls)
     fft          :      0.20s CPU      0.33s WALL (     179 calls)
     ffts         :      0.00s CPU      0.00s WALL (      13 calls)
     fftw         :      2.34s CPU      1.32s WALL (   23108 calls)

     Parallel routines

     PWSCF        :      6.49s CPU      4.06s WALL


   This run was terminated on:  14:50:43  16Apr2025            

=------------------------------------------------------------------------------=
   JOB DONE.
=------------------------------------------------------------------------------=
