
     Program PWSCF v.7.4.1 starts on 16Apr2025 at 14:51:22 

     This program is part of the open-source Quantum ESPRESSO suite
     for quantum simulation of materials; please cite
         "P. Giannozzi et al., J. Phys.:Condens. Matter 21 395502 (2009);
         "P. Giannozzi et al., J. Phys.:Condens. Matter 29 465901 (2017);
         "P. Giannozzi et al., J. Chem. Phys. 152 154105 (2020);
          URL http://www.quantum-espresso.org", 
     in publications or presentations arising from this work. More details at
     http://www.quantum-espresso.org/quote

     Parallel version (MPI), running on     7 processors

     MPI processes distributed on     1 nodes
     13335 MiB available memory on the printing compute node when the environment starts

     Waiting for input...
     Reading input from standard input

     Current dimensions of program PWSCF are:
     Max number of different atomic species (ntypx) = 10
     Max number of k-points (npk) =  40000
     Max angular momentum in pseudopotentials (lmaxx) =  4

     R & G space division:  proc/nbgrp/npool/nimage =       7
     Subspace diagonalization in iterative solution of the eigenvalue problem:
     a serial algorithm will be used


     Parallelization info
     --------------------
     sticks:   dense  smooth     PW     G-vecs:    dense   smooth      PW
     Min          43      43     13                 3639     3639     639
     Max          43      43     13                 3649     3649     655
     Sum         301     301     91                25507    25507    4493

     Using Slab Decomposition



     bravais-lattice index     =            4
     lattice parameter (alat)  =       4.6561  a.u.
     unit-cell volume          =     532.1899 (a.u.)^3
     number of atoms/cell      =            4
     number of atomic types    =            1
     number of electrons       =        16.00
     number of Kohn-Sham states=           12
     kinetic-energy cutoff     =      50.0000  Ry
     charge density cutoff     =     200.0000  Ry
     scf convergence threshold =      1.0E-08
     mixing beta               =       0.7000
     number of iterations used =            8  plain     mixing
     Exchange-correlation= PBE
                           (   1   4   3   4   0   0   0)

     celldm(1)=   4.656107  celldm(2)=   0.000000  celldm(3)=   6.087896
     celldm(4)=   0.000000  celldm(5)=   0.000000  celldm(6)=   0.000000

     crystal axes: (cart. coord. in units of alat)
               a(1) = (   1.000000   0.000000   0.000000 )  
               a(2) = (  -0.500000   0.866025   0.000000 )  
               a(3) = (   0.000000   0.000000   6.087896 )  

     reciprocal axes: (cart. coord. in units 2 pi/alat)
               b(1) = (  1.000000  0.577350 -0.000000 )  
               b(2) = (  0.000000  1.154701  0.000000 )  
               b(3) = (  0.000000 -0.000000  0.164260 )  


     PseudoPot. # 1 for C  read from file:
     /run/media/rfa/SATA/Skripsi/DFT/Graphene-copy/pseudo/C.pbe-n-rrkjus_psl.0.1.UPF
     MD5 check sum: 96a6a315177d77e6c95bf6fd3870f9e3
     Pseudo is Ultrasoft + core correction, Zval =  4.0
     Generated using &quot;atomic&quot; code by A. Dal Corso  v.6.3MaX
     Using radial grid of 1073 points,  4 beta functions with: 
                l(1) =   0
                l(2) =   0
                l(3) =   1
                l(4) =   1
     Q(r) pseudized with 0 coefficients 


     atomic species   valence    mass     pseudopotential
     C                 4.00    12.01070     C ( 1.00)

      6 Sym. Ops. (no inversion) found



   Cartesian axes

     site n.     atom                  positions (alat units)
         1        C      tau(   1) = (   0.0000000   0.5773503   3.0439478  )
         2        C      tau(   2) = (   0.5000000   0.2886751   3.0439478  )
         3        C      tau(   3) = (   0.0000000   0.0000000   3.2468777  )
         4        C      tau(   4) = (   0.0000000   0.5773503   3.2468777  )

     number of k points=    19  Marzari-Vanderbilt smearing, width (Ry)=  0.0200
                       cart. coord. in units 2pi/alat
        k(    1) = (   0.0000000   0.0000000   0.0000000), wk =   0.0138889
        k(    2) = (   0.0000000   0.0962250   0.0000000), wk =   0.0833333
        k(    3) = (   0.0000000   0.1924501   0.0000000), wk =   0.0833333
        k(    4) = (   0.0000000   0.2886751   0.0000000), wk =   0.0833333
        k(    5) = (   0.0000000   0.3849002   0.0000000), wk =   0.0833333
        k(    6) = (   0.0000000   0.4811252   0.0000000), wk =   0.0833333
        k(    7) = (   0.0000000  -0.5773503   0.0000000), wk =   0.0416667
        k(    8) = (   0.0833333   0.1443376   0.0000000), wk =   0.0833333
        k(    9) = (   0.0833333   0.2405626   0.0000000), wk =   0.1666667
        k(   10) = (   0.0833333   0.3367877   0.0000000), wk =   0.1666667
        k(   11) = (   0.0833333   0.4330127   0.0000000), wk =   0.1666667
        k(   12) = (   0.0833333   0.5292377   0.0000000), wk =   0.1666667
        k(   13) = (   0.1666667   0.2886751   0.0000000), wk =   0.0833333
        k(   14) = (   0.1666667   0.3849002   0.0000000), wk =   0.1666667
        k(   15) = (   0.1666667   0.4811252   0.0000000), wk =   0.1666667
        k(   16) = (   0.1666667   0.5773503   0.0000000), wk =   0.0833333
        k(   17) = (   0.2500000   0.4330127   0.0000000), wk =   0.0833333
        k(   18) = (   0.2500000   0.5292377   0.0000000), wk =   0.1666667
        k(   19) = (   0.3333333   0.5773503   0.0000000), wk =   0.0277778

     Dense  grid:    25507 G-vectors     FFT dimensions: (  24,  24, 128)

     Estimated max dynamical RAM per process >       7.45 MB

     Estimated total dynamical RAM >      52.17 MB

     Check: negative core charge=   -0.000006

     Initial potential from superposition of free atoms

     starting charge      15.9998, renormalised to      16.0000

     negative rho (up, down):  3.731E-04 0.000E+00
     Starting wfcs are   16 randomized atomic wfcs

     total cpu time spent up to now is        0.7 secs

     per-process dynamical memory:    11.1 Mb

     Self-consistent Calculation

     iteration #  1     ecut=    50.00 Ry     beta= 0.70
     Davidson diagonalization with overlap
     ethr =  1.00E-02,  avg # of iterations =  7.5

     negative rho (up, down):  1.153E-03 0.000E+00

     total cpu time spent up to now is        1.9 secs

     total energy              =     -32.64346607 Ry
     estimated scf accuracy    <       6.71518676 Ry

     iteration #  2     ecut=    50.00 Ry     beta= 0.70
     Davidson diagonalization with overlap
     ethr =  1.00E-02,  avg # of iterations =  5.8

     negative rho (up, down):  4.490E-05 0.000E+00

     total cpu time spent up to now is        2.6 secs

     total energy              =     -34.55995745 Ry
     estimated scf accuracy    <       4.63718175 Ry

     iteration #  3     ecut=    50.00 Ry     beta= 0.70
     Davidson diagonalization with overlap
     ethr =  1.00E-02,  avg # of iterations =  3.1

     negative rho (up, down):  1.455E-04 0.000E+00

     total cpu time spent up to now is        3.2 secs

     total energy              =     -35.24760950 Ry
     estimated scf accuracy    <       0.09537712 Ry

     iteration #  4     ecut=    50.00 Ry     beta= 0.70
     Davidson diagonalization with overlap
     ethr =  5.96E-04,  avg # of iterations = 13.2

     negative rho (up, down):  2.178E-04 0.000E+00

     total cpu time spent up to now is        4.8 secs

     total energy              =     -35.47502393 Ry
     estimated scf accuracy    <       0.11420193 Ry

     iteration #  5     ecut=    50.00 Ry     beta= 0.70
     Davidson diagonalization with overlap
     ethr =  5.96E-04,  avg # of iterations =  3.6

     negative rho (up, down):  3.582E-04 0.000E+00

     total cpu time spent up to now is        5.4 secs

     total energy              =     -35.47589329 Ry
     estimated scf accuracy    <       0.02127284 Ry

     iteration #  6     ecut=    50.00 Ry     beta= 0.70
     Davidson diagonalization with overlap
     c_bands:  1 eigenvalues not converged
     c_bands:  1 eigenvalues not converged
     c_bands:  1 eigenvalues not converged
     ethr =  1.33E-04,  avg # of iterations = 11.6

     negative rho (up, down):  7.612E-04 0.000E+00

     total cpu time spent up to now is        6.4 secs

     total energy              =     -35.48412250 Ry
     estimated scf accuracy    <       0.00113726 Ry

     iteration #  7     ecut=    50.00 Ry     beta= 0.70
     Davidson diagonalization with overlap
     c_bands:  1 eigenvalues not converged
     c_bands:  1 eigenvalues not converged
     c_bands:  1 eigenvalues not converged
     c_bands:  1 eigenvalues not converged
     c_bands:  1 eigenvalues not converged
     c_bands:  1 eigenvalues not converged
     c_bands:  1 eigenvalues not converged
     c_bands:  1 eigenvalues not converged
     c_bands:  1 eigenvalues not converged
     c_bands:  1 eigenvalues not converged
     c_bands:  2 eigenvalues not converged
     c_bands:  1 eigenvalues not converged
     c_bands:  1 eigenvalues not converged
     c_bands:  1 eigenvalues not converged
     c_bands:  1 eigenvalues not converged
     ethr =  7.11E-06,  avg # of iterations = 19.2

     negative rho (up, down):  7.084E-04 0.000E+00

     total cpu time spent up to now is        8.1 secs

     total energy              =     -35.48622449 Ry
     estimated scf accuracy    <       0.00967084 Ry

     iteration #  8     ecut=    50.00 Ry     beta= 0.70
     Davidson diagonalization with overlap
     ethr =  7.11E-06,  avg # of iterations =  4.3

     negative rho (up, down):  7.752E-04 0.000E+00

     total cpu time spent up to now is        8.7 secs

     total energy              =     -35.48554853 Ry
     estimated scf accuracy    <       0.00344346 Ry

     iteration #  9     ecut=    50.00 Ry     beta= 0.70
     Davidson diagonalization with overlap
     ethr =  7.11E-06,  avg # of iterations =  5.0

     negative rho (up, down):  8.467E-04 0.000E+00

     total cpu time spent up to now is        9.4 secs

     total energy              =     -35.48563609 Ry
     estimated scf accuracy    <       0.00054337 Ry

     iteration # 10     ecut=    50.00 Ry     beta= 0.70
     Davidson diagonalization with overlap
     c_bands:  1 eigenvalues not converged
     ethr =  3.40E-06,  avg # of iterations =  6.9

     negative rho (up, down):  8.093E-04 0.000E+00

     total cpu time spent up to now is       10.3 secs

     total energy              =     -35.48595882 Ry
     estimated scf accuracy    <       0.00004306 Ry

     iteration # 11     ecut=    50.00 Ry     beta= 0.70
     Davidson diagonalization with overlap
     ethr =  2.69E-07,  avg # of iterations =  7.5

     negative rho (up, down):  8.055E-04 0.000E+00

     total cpu time spent up to now is       10.9 secs

     total energy              =     -35.48601740 Ry
     estimated scf accuracy    <       0.00005776 Ry

     iteration # 12     ecut=    50.00 Ry     beta= 0.70
     Davidson diagonalization with overlap
     ethr =  2.69E-07,  avg # of iterations =  2.1

     negative rho (up, down):  8.064E-04 0.000E+00

     total cpu time spent up to now is       11.4 secs

     total energy              =     -35.48600680 Ry
     estimated scf accuracy    <       0.00003490 Ry

     iteration # 13     ecut=    50.00 Ry     beta= 0.70
     Davidson diagonalization with overlap
     ethr =  2.18E-07,  avg # of iterations =  1.3

     negative rho (up, down):  7.995E-04 0.000E+00

     total cpu time spent up to now is       11.9 secs

     total energy              =     -35.48600763 Ry
     estimated scf accuracy    <       0.00000502 Ry

     iteration # 14     ecut=    50.00 Ry     beta= 0.70
     Davidson diagonalization with overlap
     ethr =  3.13E-08,  avg # of iterations =  5.3

     negative rho (up, down):  8.002E-04 0.000E+00

     total cpu time spent up to now is       12.7 secs

     total energy              =     -35.48601243 Ry
     estimated scf accuracy    <       0.00000138 Ry

     iteration # 15     ecut=    50.00 Ry     beta= 0.70
     Davidson diagonalization with overlap
     ethr =  8.60E-09,  avg # of iterations =  3.7

     negative rho (up, down):  8.008E-04 0.000E+00

     total cpu time spent up to now is       13.4 secs

     total energy              =     -35.48601283 Ry
     estimated scf accuracy    <       0.00000143 Ry

     iteration # 16     ecut=    50.00 Ry     beta= 0.70
     Davidson diagonalization with overlap
     ethr =  8.60E-09,  avg # of iterations =  1.2

     negative rho (up, down):  8.042E-04 0.000E+00

     total cpu time spent up to now is       13.7 secs

     total energy              =     -35.48601211 Ry
     estimated scf accuracy    <       0.00000106 Ry

     iteration # 17     ecut=    50.00 Ry     beta= 0.70
     Davidson diagonalization with overlap
     ethr =  6.62E-09,  avg # of iterations =  4.7

     negative rho (up, down):  8.027E-04 0.000E+00

     total cpu time spent up to now is       14.4 secs

     total energy              =     -35.48601248 Ry
     estimated scf accuracy    <       0.00000079 Ry

     iteration # 18     ecut=    50.00 Ry     beta= 0.70
     Davidson diagonalization with overlap
     ethr =  4.93E-09,  avg # of iterations =  1.8

     negative rho (up, down):  8.025E-04 0.000E+00

     total cpu time spent up to now is       14.9 secs

     End of self-consistent calculation

          k = 0.0000 0.0000 0.0000 (  3135 PWs)   bands (ev):

   -29.6747 -21.9857 -21.9857 -16.6344  -9.3794  -9.3794  -4.9210   3.6483
     3.9588   4.2207   4.9712   5.8974

          k = 0.0000 0.0962 0.0000 (  3173 PWs)   bands (ev):

   -29.6604 -22.2633 -22.1271 -16.4561  -9.1264  -8.7627  -4.7904   3.2858
     4.1517   4.1691   5.0593   5.9500

          k = 0.0000 0.1925 0.0000 (  3183 PWs)   bands (ev):

   -29.6201 -22.9336 -22.4980 -15.9080  -8.4078  -7.0918  -4.4227   1.4331
     4.4459   4.7903   5.0028   6.1161

          k = 0.0000 0.2887 0.0000 (  3177 PWs)   bands (ev):

   -29.5618 -23.7027 -22.9782 -14.9929  -7.3156  -4.7176  -3.9667  -0.9877
     3.5453   5.9131   6.0090   6.4289

          k = 0.0000 0.3849 0.0000 (  3189 PWs)   bands (ev):

   -29.4999 -24.3595 -23.4328 -13.7469  -6.0106  -4.5338  -2.1723  -1.9748
     2.5031   3.9969   6.7421   7.4381

          k = 0.0000 0.4811 0.0000 (  3207 PWs)   bands (ev):

   -29.4520 -24.7892 -23.7513 -12.3125  -6.7601  -4.3468  -1.5180   0.7854
     1.5751   1.6598   5.3081   9.2639

          k = 0.0000-0.5774 0.0000 (  3208 PWs)   bands (ev):

   -29.4337 -24.9373 -23.8652 -11.4119  -7.8952  -3.5656  -0.6722   0.1179
     1.1316   2.7312   3.9415  10.8993

          k = 0.0833 0.1443 0.0000 (  3191 PWs)   bands (ev):

   -29.6323 -22.7979 -22.3152 -16.0935  -8.6707  -7.5970  -4.5389   2.0981
     4.4556   4.5619   4.8599   5.9228

          k = 0.0833 0.2406 0.0000 (  3176 PWs)   bands (ev):

   -29.5768 -23.6369 -22.5929 -15.3591  -7.8298  -5.5479  -4.0858   0.0180
     3.4186   5.4701   5.5327   6.5633

          k = 0.0833 0.3368 0.0000 (  3174 PWs)   bands (ev):

   -29.4993 -24.4853 -22.8942 -14.2730  -6.6677  -3.9115  -2.9110  -2.0498
     2.2144   4.8511   6.7741   6.8509

          k = 0.0833 0.4330 0.0000 (  3188 PWs)   bands (ev):

   -29.4162 -25.1561 -23.1399 -12.9068  -5.7753  -5.0020  -2.0443  -0.3245
     1.3500   2.5319   6.9575   8.5428

          k = 0.0833 0.5292 0.0000 (  3187 PWs)   bands (ev):

   -29.3580 -25.5271 -23.2755 -11.5686  -7.4250  -3.9061  -1.1484   0.0435
     0.5188   2.7115   5.4638  10.4041

          k = 0.1667 0.2887 0.0000 (  3165 PWs)   bands (ev):

   -29.4876 -24.6207 -22.5901 -14.4529  -6.9989  -3.7759  -3.1128  -1.7745
     1.7150   5.1263   6.5802   6.6115

          k = 0.1667 0.3849 0.0000 (  3167 PWs)   bands (ev):

   -29.3452 -25.5572 -22.5799 -13.2276  -5.9019  -4.1823  -2.9088  -0.9023
     0.8848   2.9921   7.8874   8.1950

          k = 0.1667 0.4811 0.0000 (  3169 PWs)   bands (ev):

   -29.1813 -26.2507 -22.5742 -11.8286  -6.2689  -4.5365  -2.5203  -0.7262
     0.7861   2.9221   7.8392  10.0048

          k = 0.1667 0.5774 0.0000 (  3186 PWs)   bands (ev):

   -29.0994 -26.5178 -22.5726 -10.9703  -7.3600  -3.7571  -2.3220  -0.6255
    -0.5599   4.7609   6.5073  11.4863

          k = 0.2500 0.4330 0.0000 (  3157 PWs)   bands (ev):

   -29.0744 -26.5556 -22.2964 -11.9407  -5.2309  -4.7741  -3.8017  -0.8895
     0.8905   3.0291   9.1586   9.9853

          k = 0.2500 0.5292 0.0000 (  3158 PWs)   bands (ev):

   -28.7540 -27.2687 -22.1345 -10.7438  -6.4441  -4.2653  -3.7175  -1.2527
    -0.4620   5.7394   8.5942  11.0507

          k = 0.3333 0.5774 0.0000 (  3171 PWs)   bands (ev):

   -28.1151 -28.1151 -21.9706 -10.2296  -5.8054  -5.8053  -2.5725  -2.5724
    -0.5601   8.1112   9.0742   9.0742

     the Fermi energy is     0.4337 ev

!    total energy              =     -35.48601265 Ry
     estimated scf accuracy    <          4.9E-09 Ry
     smearing contrib. (-TS)   =       0.00072139 Ry
     internal energy E=F+TS    =     -35.48673404 Ry

     The total energy is F=E-TS. E is the sum of the following terms:
     one-electron contribution =    -617.15686823 Ry
     hartree contribution      =     312.00363759 Ry
     xc contribution           =     -19.65509304 Ry
     ewald contribution        =     289.32158964 Ry

     convergence has been achieved in  18 iterations

     negative rho (up, down):  8.025E-04 0.000E+00

     Forces acting on atoms (cartesian axes, Ry/au):

     atom    1 type  1   force =     0.00000000    0.00000000  -24.19821456
     atom    2 type  1   force =     0.00000000    0.00000000   -0.42872941
     atom    3 type  1   force =     0.00000000    0.00000000    0.42871149
     atom    4 type  1   force =     0.00000000    0.00000000   24.19823249

     Total force =    34.226826     Total SCF correction =     0.000197


     Computing stress (Cartesian axis) and pressure


     negative rho (up, down):  8.025E-04 0.000E+00
          total   stress  (Ry/bohr**3)                   (kbar)     P=     2861.81
   0.00753837   0.00000000   0.00000000         1108.93        0.00        0.00
   0.00000000   0.00753837   0.00000000            0.00     1108.93        0.00
   0.00000000   0.00000000   0.04328583            0.00        0.00     6367.57


     Writing all to output data dir /run/media/rfa/SATA/Skripsi/DFT/Graphene-copy/tmp/gr-ab-2L.save/ :
     XML data file, charge density, pseudopotentials, collected wavefunctions

     init_run     :      0.53s CPU      0.59s WALL (       1 calls)
     electrons    :     26.19s CPU     14.20s WALL (       1 calls)
     forces       :      0.11s CPU      0.06s WALL (       1 calls)
     stress       :      0.30s CPU      0.18s WALL (       1 calls)

     Called by init_run:
     wfcinit      :      0.27s CPU      0.14s WALL (       1 calls)
     potinit      :      0.01s CPU      0.01s WALL (       1 calls)
     hinit0       :      0.22s CPU      0.41s WALL (       1 calls)

     Called by electrons:
     c_bands      :     22.83s CPU     12.28s WALL (      18 calls)
     sum_band     :      2.71s CPU      1.44s WALL (      18 calls)
     v_of_rho     :      0.38s CPU      0.28s WALL (      19 calls)
     newd         :      0.13s CPU      0.11s WALL (      19 calls)
     mix_rho      :      0.11s CPU      0.06s WALL (      18 calls)

     Called by c_bands:
     init_us_2    :      0.44s CPU      0.24s WALL (     741 calls)
     cegterg      :     22.02s CPU     11.78s WALL (     342 calls)

     Called by *egterg:
     cdiaghg      :      2.03s CPU      1.08s WALL (    2391 calls)
     h_psi        :     16.76s CPU      8.97s WALL (    2410 calls)
     s_psi        :      0.42s CPU      0.23s WALL (    2410 calls)
     g_psi        :      0.18s CPU      0.10s WALL (    2049 calls)

     Called by h_psi:
     h_psi:calbec :      1.22s CPU      0.66s WALL (    2410 calls)
     vloc_psi     :     14.80s CPU      7.88s WALL (    2410 calls)
     add_vuspsi   :      0.57s CPU      0.32s WALL (    2410 calls)

     General routines
     calbec       :      1.48s CPU      0.79s WALL (    3075 calls)
     fft          :      0.32s CPU      0.48s WALL (     234 calls)
     ffts         :      0.01s CPU      0.01s WALL (      18 calls)
     fftw         :     14.37s CPU      7.64s WALL (   35236 calls)

     Parallel routines

     PWSCF        :     27.25s CPU     15.33s WALL


   This run was terminated on:  14:51:37  16Apr2025            

=------------------------------------------------------------------------------=
   JOB DONE.
=------------------------------------------------------------------------------=
