
     Program PWSCF v.7.4.1 starts on 16Apr2025 at 14:50:35 

     This program is part of the open-source Quantum ESPRESSO suite
     for quantum simulation of materials; please cite
         "P. Giannozzi et al., J. Phys.:Condens. Matter 21 395502 (2009);
         "P. Giannozzi et al., J. Phys.:Condens. Matter 29 465901 (2017);
         "P. Giannozzi et al., J. Chem. Phys. 152 154105 (2020);
          URL http://www.quantum-espresso.org", 
     in publications or presentations arising from this work. More details at
     http://www.quantum-espresso.org/quote

     Parallel version (MPI), running on     7 processors

     MPI processes distributed on     1 nodes
     13358 MiB available memory on the printing compute node when the environment starts

     Waiting for input...
     Reading input from standard input

     Current dimensions of program PWSCF are:
     Max number of different atomic species (ntypx) = 10
     Max number of k-points (npk) =  40000
     Max angular momentum in pseudopotentials (lmaxx) =  4

     R & G space division:  proc/nbgrp/npool/nimage =       7
     Subspace diagonalization in iterative solution of the eigenvalue problem:
     a serial algorithm will be used


     Parallelization info
     --------------------
     sticks:   dense  smooth     PW     G-vecs:    dense   smooth      PW
     Min          21      21      7                 1209     1209     253
     Max          22      22      8                 1218     1218     266
     Sum         151     151     55                 8507     8507    1811

     Using Slab Decomposition



     bravais-lattice index     =            4
     lattice parameter (alat)  =       4.6561  a.u.
     unit-cell volume          =     532.1899 (a.u.)^3
     number of atoms/cell      =            4
     number of atomic types    =            1
     number of electrons       =        16.00
     number of Kohn-Sham states=           12
     kinetic-energy cutoff     =      24.0000  Ry
     charge density cutoff     =      96.0000  Ry
     scf convergence threshold =      1.0E-08
     mixing beta               =       0.7000
     number of iterations used =            8  plain     mixing
     Exchange-correlation= PBE
                           (   1   4   3   4   0   0   0)

     celldm(1)=   4.656107  celldm(2)=   0.000000  celldm(3)=   6.087896
     celldm(4)=   0.000000  celldm(5)=   0.000000  celldm(6)=   0.000000

     crystal axes: (cart. coord. in units of alat)
               a(1) = (   1.000000   0.000000   0.000000 )  
               a(2) = (  -0.500000   0.866025   0.000000 )  
               a(3) = (   0.000000   0.000000   6.087896 )  

     reciprocal axes: (cart. coord. in units 2 pi/alat)
               b(1) = (  1.000000  0.577350 -0.000000 )  
               b(2) = (  0.000000  1.154701  0.000000 )  
               b(3) = (  0.000000 -0.000000  0.164260 )  


     PseudoPot. # 1 for C  read from file:
     /run/media/rfa/SATA/Skripsi/DFT/Graphene-copy/pseudo/C.pbe-n-rrkjus_psl.0.1.UPF
     MD5 check sum: 96a6a315177d77e6c95bf6fd3870f9e3
     Pseudo is Ultrasoft + core correction, Zval =  4.0
     Generated using &quot;atomic&quot; code by A. Dal Corso  v.6.3MaX
     Using radial grid of 1073 points,  4 beta functions with: 
                l(1) =   0
                l(2) =   0
                l(3) =   1
                l(4) =   1
     Q(r) pseudized with 0 coefficients 


     atomic species   valence    mass     pseudopotential
     C                 4.00    12.01070     C ( 1.00)

      6 Sym. Ops. (no inversion) found



   Cartesian axes

     site n.     atom                  positions (alat units)
         1        C      tau(   1) = (   0.0000000   0.5773503   3.0439478  )
         2        C      tau(   2) = (   0.5000000   0.2886751   3.0439478  )
         3        C      tau(   3) = (   0.0000000   0.0000000   3.2468777  )
         4        C      tau(   4) = (   0.0000000   0.5773503   3.2468777  )

     number of k points=    19  Marzari-Vanderbilt smearing, width (Ry)=  0.0200
                       cart. coord. in units 2pi/alat
        k(    1) = (   0.0000000   0.0000000   0.0000000), wk =   0.0138889
        k(    2) = (   0.0000000   0.0962250   0.0000000), wk =   0.0833333
        k(    3) = (   0.0000000   0.1924501   0.0000000), wk =   0.0833333
        k(    4) = (   0.0000000   0.2886751   0.0000000), wk =   0.0833333
        k(    5) = (   0.0000000   0.3849002   0.0000000), wk =   0.0833333
        k(    6) = (   0.0000000   0.4811252   0.0000000), wk =   0.0833333
        k(    7) = (   0.0000000  -0.5773503   0.0000000), wk =   0.0416667
        k(    8) = (   0.0833333   0.1443376   0.0000000), wk =   0.0833333
        k(    9) = (   0.0833333   0.2405626   0.0000000), wk =   0.1666667
        k(   10) = (   0.0833333   0.3367877   0.0000000), wk =   0.1666667
        k(   11) = (   0.0833333   0.4330127   0.0000000), wk =   0.1666667
        k(   12) = (   0.0833333   0.5292377   0.0000000), wk =   0.1666667
        k(   13) = (   0.1666667   0.2886751   0.0000000), wk =   0.0833333
        k(   14) = (   0.1666667   0.3849002   0.0000000), wk =   0.1666667
        k(   15) = (   0.1666667   0.4811252   0.0000000), wk =   0.1666667
        k(   16) = (   0.1666667   0.5773503   0.0000000), wk =   0.0833333
        k(   17) = (   0.2500000   0.4330127   0.0000000), wk =   0.0833333
        k(   18) = (   0.2500000   0.5292377   0.0000000), wk =   0.1666667
        k(   19) = (   0.3333333   0.5773503   0.0000000), wk =   0.0277778

     Dense  grid:     8507 G-vectors     FFT dimensions: (  15,  15,  90)

     Estimated max dynamical RAM per process >       2.55 MB

     Estimated total dynamical RAM >      17.84 MB

     Check: negative core charge=   -0.000142

     Initial potential from superposition of free atoms

     starting charge      15.9998, renormalised to      16.0000

     negative rho (up, down):  1.019E-02 0.000E+00
     Starting wfcs are   16 randomized atomic wfcs

     total cpu time spent up to now is        0.4 secs

     per-process dynamical memory:     8.5 Mb

     Self-consistent Calculation

     iteration #  1     ecut=    24.00 Ry     beta= 0.70
     Davidson diagonalization with overlap
     ethr =  1.00E-02,  avg # of iterations =  4.5

     negative rho (up, down):  8.840E-02 0.000E+00

     total cpu time spent up to now is        0.7 secs

     total energy              =     -32.87413032 Ry
     estimated scf accuracy    <       4.85472950 Ry

     iteration #  2     ecut=    24.00 Ry     beta= 0.70
     Davidson diagonalization with overlap
     ethr =  1.00E-02,  avg # of iterations =  6.9

     negative rho (up, down):  5.661E-04 0.000E+00

     total cpu time spent up to now is        1.0 secs

     total energy              =     -32.02802154 Ry
     estimated scf accuracy    <       8.22470102 Ry

     iteration #  3     ecut=    24.00 Ry     beta= 0.70
     Davidson diagonalization with overlap
     ethr =  1.00E-02,  avg # of iterations =  5.1

     negative rho (up, down):  4.242E-03 0.000E+00

     total cpu time spent up to now is        1.2 secs

     total energy              =     -34.77525733 Ry
     estimated scf accuracy    <       0.44198171 Ry

     iteration #  4     ecut=    24.00 Ry     beta= 0.70
     Davidson diagonalization with overlap
     ethr =  2.76E-03,  avg # of iterations =  2.2

     negative rho (up, down):  1.233E-02 0.000E+00

     total cpu time spent up to now is        1.4 secs

     total energy              =     -34.74119849 Ry
     estimated scf accuracy    <       0.20194193 Ry

     iteration #  5     ecut=    24.00 Ry     beta= 0.70
     Davidson diagonalization with overlap
     ethr =  1.26E-03,  avg # of iterations =  2.3

     negative rho (up, down):  2.950E-02 0.000E+00

     total cpu time spent up to now is        1.6 secs

     total energy              =     -34.70275963 Ry
     estimated scf accuracy    <       0.08613450 Ry

     iteration #  6     ecut=    24.00 Ry     beta= 0.70
     Davidson diagonalization with overlap
     ethr =  5.38E-04,  avg # of iterations =  5.1

     negative rho (up, down):  4.551E-02 0.000E+00

     total cpu time spent up to now is        1.8 secs

     total energy              =     -34.69455958 Ry
     estimated scf accuracy    <       0.02308510 Ry

     iteration #  7     ecut=    24.00 Ry     beta= 0.70
     Davidson diagonalization with overlap
     ethr =  1.44E-04,  avg # of iterations =  7.7

     negative rho (up, down):  5.615E-02 0.000E+00

     total cpu time spent up to now is        2.0 secs

     total energy              =     -34.69449696 Ry
     estimated scf accuracy    <       0.00424926 Ry

     iteration #  8     ecut=    24.00 Ry     beta= 0.70
     Davidson diagonalization with overlap
     c_bands:  1 eigenvalues not converged
     ethr =  2.66E-05,  avg # of iterations =  8.3

     negative rho (up, down):  6.512E-02 0.000E+00

     total cpu time spent up to now is        2.1 secs

     total energy              =     -34.69385564 Ry
     estimated scf accuracy    <       0.00129032 Ry

     iteration #  9     ecut=    24.00 Ry     beta= 0.70
     Davidson diagonalization with overlap
     c_bands:  1 eigenvalues not converged
     ethr =  8.06E-06,  avg # of iterations = 11.3

     negative rho (up, down):  6.569E-02 0.000E+00

     total cpu time spent up to now is        2.3 secs

     total energy              =     -34.69418283 Ry
     estimated scf accuracy    <       0.00001938 Ry

     iteration # 10     ecut=    24.00 Ry     beta= 0.70
     Davidson diagonalization with overlap
     c_bands:  1 eigenvalues not converged
     ethr =  1.21E-07,  avg # of iterations =  6.8

     negative rho (up, down):  6.499E-02 0.000E+00

     total cpu time spent up to now is        2.4 secs

     total energy              =     -34.69419465 Ry
     estimated scf accuracy    <       0.00001302 Ry

     iteration # 11     ecut=    24.00 Ry     beta= 0.70
     Davidson diagonalization with overlap
     ethr =  8.14E-08,  avg # of iterations =  2.1

     negative rho (up, down):  6.482E-02 0.000E+00

     total cpu time spent up to now is        2.5 secs

     total energy              =     -34.69419736 Ry
     estimated scf accuracy    <       0.00000084 Ry

     iteration # 12     ecut=    24.00 Ry     beta= 0.70
     Davidson diagonalization with overlap
     ethr =  5.23E-09,  avg # of iterations =  2.7

     negative rho (up, down):  6.482E-02 0.000E+00

     total cpu time spent up to now is        2.6 secs

     total energy              =     -34.69419755 Ry
     estimated scf accuracy    <       0.00000002 Ry

     iteration # 13     ecut=    24.00 Ry     beta= 0.70
     Davidson diagonalization with overlap
     ethr =  1.19E-10,  avg # of iterations =  5.0

     negative rho (up, down):  6.483E-02 0.000E+00

     total cpu time spent up to now is        2.7 secs

     End of self-consistent calculation

          k = 0.0000 0.0000 0.0000 (  1077 PWs)   bands (ev):

   -30.1668 -22.7451 -22.7451 -15.5386  -9.4954  -9.4954  -5.5358   2.1993
     2.4728   3.5605   4.6261   5.4674

          k = 0.0000 0.0962 0.0000 (  1089 PWs)   bands (ev):

   -30.1558 -23.0244 -22.8766 -15.4035  -9.2897  -8.9035  -5.4244   2.4220
     2.7016   3.7294   4.8084   5.1835

          k = 0.0000 0.1925 0.0000 (  1078 PWs)   bands (ev):

   -30.1077 -23.6587 -23.1491 -14.8314  -8.6121  -7.2562  -5.0633   3.0484
     3.1961   3.4198   4.2909   5.1457

          k = 0.0000 0.2887 0.0000 (  1064 PWs)   bands (ev):

   -30.0263 -24.3510 -23.5669 -13.8335  -7.5941  -4.8631  -4.5481   0.3164
     3.9043   4.3647   4.5518   5.7209

          k = 0.0000 0.3849 0.0000 (  1044 PWs)   bands (ev):

   -29.9191 -24.9670 -23.9707 -12.3989  -6.3492  -4.2546  -2.0704  -2.0363
     3.3388   3.7896   5.8438   6.1433

          k = 0.0000 0.4811 0.0000 (  1052 PWs)   bands (ev):

   -29.9154 -25.4028 -24.2499 -10.6468  -6.2940  -4.6690  -2.2061   0.7150
     1.4062   2.6833   5.2595   7.8447

          k = 0.0000-0.5774 0.0000 (  1062 PWs)   bands (ev):

   -29.8991 -25.5607 -24.3491  -9.0644  -8.0814  -4.0867  -1.6120  -0.0009
     2.3790   2.7668   3.7383  10.1811

          k = 0.0833 0.1443 0.0000 (  1077 PWs)   bands (ev):

   -30.1245 -23.5159 -22.9959 -14.9962  -8.8670  -7.7463  -5.1732   2.8661
     3.1585   3.9558   4.4712   4.7820

          k = 0.0833 0.2406 0.0000 (  1065 PWs)   bands (ev):

   -30.0470 -24.3078 -23.2102 -14.2195  -8.0959  -5.7009  -4.7084   1.8829
     3.4416   3.8445   4.0936   5.1946

          k = 0.0833 0.3368 0.0000 (  1061 PWs)   bands (ev):

   -29.9440 -25.1089 -23.4753 -13.0448  -6.9938  -4.2529  -3.0680  -0.9649
     2.5234   4.5933   5.1390   5.4564

          k = 0.0833 0.4330 0.0000 (  1047 PWs)   bands (ev):

   -29.8621 -25.7290 -23.6746 -11.4063  -5.8057  -4.6832  -2.3687  -0.3179
     1.8030   2.3377   6.7340   7.2041

          k = 0.0833 0.5292 0.0000 (  1043 PWs)   bands (ev):

   -29.8001 -26.1036 -23.7798  -9.5411  -7.1621  -4.3304  -1.8387   0.1564
     0.9750   2.7973   5.5841   9.1842

          k = 0.1667 0.2887 0.0000 (  1057 PWs)   bands (ev):

   -29.9353 -25.2565 -23.1818 -13.2178  -7.3231  -4.2661  -3.3211   0.2474
     1.3653   4.8303   4.9429   5.2289

          k = 0.1667 0.3849 0.0000 (  1060 PWs)   bands (ev):

   -29.8185 -26.1580 -23.1376 -11.7926  -6.2667  -3.9943  -2.0309  -1.0405
     0.6760   2.6601   6.4423   6.8221

          k = 0.1667 0.4811 0.0000 (  1048 PWs)   bands (ev):

   -29.6472 -26.8147 -23.0921 -10.0603  -5.7145  -4.8110  -2.4053  -1.0060
     0.5181   2.8553   7.7659   8.6719

          k = 0.1667 0.5774 0.0000 (  1040 PWs)   bands (ev):

   -29.5462 -27.0608 -23.0655  -8.3562  -7.5118  -4.1599  -1.7923  -1.5824
    -0.5191   4.8014   6.6202  10.9478

          k = 0.2500 0.4330 0.0000 (  1052 PWs)   bands (ev):

   -29.5471 -27.1182 -22.8157 -10.2492  -5.2866  -4.0541  -3.5432  -1.6203
     0.5666   2.9030   8.1387   8.6333

          k = 0.2500 0.5292 0.0000 (  1041 PWs)   bands (ev):

   -29.2083 -27.8026 -22.6231  -8.3842  -6.0490  -4.1171  -3.9111  -1.7457
    -1.1349   5.7146   8.5858  10.5171

          k = 0.3333 0.5774 0.0000 (  1050 PWs)   bands (ev):

   -28.6216 -28.6216 -22.4628  -6.9360  -5.9394  -5.9394  -2.9064  -2.9064
    -1.5890   7.8287   9.1696   9.1696

     the Fermi energy is     0.6125 ev

!    total energy              =     -34.69419754 Ry
     estimated scf accuracy    <          1.5E-09 Ry
     smearing contrib. (-TS)   =      -0.00041581 Ry
     internal energy E=F+TS    =     -34.69378173 Ry

     The total energy is F=E-TS. E is the sum of the following terms:
     one-electron contribution =    -615.64120886 Ry
     hartree contribution      =     311.16760631 Ry
     xc contribution           =     -19.54176914 Ry
     ewald contribution        =     289.32158995 Ry

     convergence has been achieved in  13 iterations

     negative rho (up, down):  6.483E-02 0.000E+00

     Forces acting on atoms (cartesian axes, Ry/au):

     atom    1 type  1   force =     0.00000000    0.00000000  -26.85907332
     atom    2 type  1   force =     0.00000000    0.00000000   -0.45617030
     atom    3 type  1   force =     0.00000000    0.00000000    0.45616941
     atom    4 type  1   force =     0.00000000    0.00000000   26.85907421

     Total force =    37.989944     Total SCF correction =     0.000101


     Computing stress (Cartesian axis) and pressure


     negative rho (up, down):  6.483E-02 0.000E+00
          total   stress  (Ry/bohr**3)                   (kbar)     P=     2555.10
   0.00454263   0.00000000   0.00000000          668.24        0.00        0.00
   0.00000000   0.00454263   0.00000000            0.00      668.24        0.00
   0.00000000   0.00000000   0.04302243            0.00        0.00     6328.82


     Writing all to output data dir /run/media/rfa/SATA/Skripsi/DFT/Graphene-copy/tmp/gr-ab-2L.save/ :
     XML data file, charge density, pseudopotentials, collected wavefunctions

     init_run     :      0.25s CPU      0.31s WALL (       1 calls)
     electrons    :      3.86s CPU      2.30s WALL (       1 calls)
     forces       :      0.01s CPU      0.01s WALL (       1 calls)
     stress       :      0.03s CPU      0.03s WALL (       1 calls)

     Called by init_run:
     wfcinit      :      0.13s CPU      0.09s WALL (       1 calls)
     potinit      :      0.00s CPU      0.00s WALL (       1 calls)
     hinit0       :      0.11s CPU      0.22s WALL (       1 calls)

     Called by electrons:
     c_bands      :      3.53s CPU      2.01s WALL (      13 calls)
     sum_band     :      0.26s CPU      0.20s WALL (      13 calls)
     v_of_rho     :      0.02s CPU      0.03s WALL (      14 calls)
     newd         :      0.03s CPU      0.03s WALL (      14 calls)
     mix_rho      :      0.01s CPU      0.01s WALL (      13 calls)

     Called by c_bands:
     init_us_2    :      0.07s CPU      0.04s WALL (     551 calls)
     cegterg      :      3.33s CPU      1.87s WALL (     247 calls)

     Called by *egterg:
     cdiaghg      :      0.82s CPU      0.44s WALL (    1578 calls)
     h_psi        :      2.06s CPU      1.20s WALL (    1597 calls)
     s_psi        :      0.07s CPU      0.04s WALL (    1597 calls)
     g_psi        :      0.02s CPU      0.02s WALL (    1331 calls)

     Called by h_psi:
     h_psi:calbec :      0.19s CPU      0.11s WALL (    1597 calls)
     vloc_psi     :      1.74s CPU      1.01s WALL (    1597 calls)
     add_vuspsi   :      0.09s CPU      0.05s WALL (    1597 calls)

     General routines
     calbec       :      0.21s CPU      0.14s WALL (    2167 calls)
     fft          :      0.11s CPU      0.22s WALL (     179 calls)
     ffts         :      0.00s CPU      0.00s WALL (      13 calls)
     fftw         :      1.60s CPU      0.95s WALL (   22254 calls)

     Parallel routines

     PWSCF        :      4.23s CPU      2.81s WALL


   This run was terminated on:  14:50:38  16Apr2025            

=------------------------------------------------------------------------------=
   JOB DONE.
=------------------------------------------------------------------------------=
