
     Program PWSCF v.7.4.1 starts on 16Apr2025 at 14:51: 8 

     This program is part of the open-source Quantum ESPRESSO suite
     for quantum simulation of materials; please cite
         "P. Giannozzi et al., J. Phys.:Condens. Matter 21 395502 (2009);
         "P. Giannozzi et al., J. Phys.:Condens. Matter 29 465901 (2017);
         "P. Giannozzi et al., J. Chem. Phys. 152 154105 (2020);
          URL http://www.quantum-espresso.org", 
     in publications or presentations arising from this work. More details at
     http://www.quantum-espresso.org/quote

     Parallel version (MPI), running on     7 processors

     MPI processes distributed on     1 nodes
     13338 MiB available memory on the printing compute node when the environment starts

     Waiting for input...
     Reading input from standard input

     Current dimensions of program PWSCF are:
     Max number of different atomic species (ntypx) = 10
     Max number of k-points (npk) =  40000
     Max angular momentum in pseudopotentials (lmaxx) =  4

     R & G space division:  proc/nbgrp/npool/nimage =       7
     Subspace diagonalization in iterative solution of the eigenvalue problem:
     a serial algorithm will be used


     Parallelization info
     --------------------
     sticks:   dense  smooth     PW     G-vecs:    dense   smooth      PW
     Min          37      37     12                 3088     3088     566
     Max          38      38     13                 3095     3095     589
     Sum         265     265     85                21637    21637    3993

     Using Slab Decomposition



     bravais-lattice index     =            4
     lattice parameter (alat)  =       4.6561  a.u.
     unit-cell volume          =     532.1899 (a.u.)^3
     number of atoms/cell      =            4
     number of atomic types    =            1
     number of electrons       =        16.00
     number of Kohn-Sham states=           12
     kinetic-energy cutoff     =      45.0000  Ry
     charge density cutoff     =     180.0000  Ry
     scf convergence threshold =      1.0E-08
     mixing beta               =       0.7000
     number of iterations used =            8  plain     mixing
     Exchange-correlation= PBE
                           (   1   4   3   4   0   0   0)

     celldm(1)=   4.656107  celldm(2)=   0.000000  celldm(3)=   6.087896
     celldm(4)=   0.000000  celldm(5)=   0.000000  celldm(6)=   0.000000

     crystal axes: (cart. coord. in units of alat)
               a(1) = (   1.000000   0.000000   0.000000 )  
               a(2) = (  -0.500000   0.866025   0.000000 )  
               a(3) = (   0.000000   0.000000   6.087896 )  

     reciprocal axes: (cart. coord. in units 2 pi/alat)
               b(1) = (  1.000000  0.577350 -0.000000 )  
               b(2) = (  0.000000  1.154701  0.000000 )  
               b(3) = (  0.000000 -0.000000  0.164260 )  


     PseudoPot. # 1 for C  read from file:
     /run/media/rfa/SATA/Skripsi/DFT/Graphene-copy/pseudo/C.pbe-n-rrkjus_psl.0.1.UPF
     MD5 check sum: 96a6a315177d77e6c95bf6fd3870f9e3
     Pseudo is Ultrasoft + core correction, Zval =  4.0
     Generated using &quot;atomic&quot; code by A. Dal Corso  v.6.3MaX
     Using radial grid of 1073 points,  4 beta functions with: 
                l(1) =   0
                l(2) =   0
                l(3) =   1
                l(4) =   1
     Q(r) pseudized with 0 coefficients 


     atomic species   valence    mass     pseudopotential
     C                 4.00    12.01070     C ( 1.00)

      6 Sym. Ops. (no inversion) found



   Cartesian axes

     site n.     atom                  positions (alat units)
         1        C      tau(   1) = (   0.0000000   0.5773503   3.0439478  )
         2        C      tau(   2) = (   0.5000000   0.2886751   3.0439478  )
         3        C      tau(   3) = (   0.0000000   0.0000000   3.2468777  )
         4        C      tau(   4) = (   0.0000000   0.5773503   3.2468777  )

     number of k points=    19  Marzari-Vanderbilt smearing, width (Ry)=  0.0200
                       cart. coord. in units 2pi/alat
        k(    1) = (   0.0000000   0.0000000   0.0000000), wk =   0.0138889
        k(    2) = (   0.0000000   0.0962250   0.0000000), wk =   0.0833333
        k(    3) = (   0.0000000   0.1924501   0.0000000), wk =   0.0833333
        k(    4) = (   0.0000000   0.2886751   0.0000000), wk =   0.0833333
        k(    5) = (   0.0000000   0.3849002   0.0000000), wk =   0.0833333
        k(    6) = (   0.0000000   0.4811252   0.0000000), wk =   0.0833333
        k(    7) = (   0.0000000  -0.5773503   0.0000000), wk =   0.0416667
        k(    8) = (   0.0833333   0.1443376   0.0000000), wk =   0.0833333
        k(    9) = (   0.0833333   0.2405626   0.0000000), wk =   0.1666667
        k(   10) = (   0.0833333   0.3367877   0.0000000), wk =   0.1666667
        k(   11) = (   0.0833333   0.4330127   0.0000000), wk =   0.1666667
        k(   12) = (   0.0833333   0.5292377   0.0000000), wk =   0.1666667
        k(   13) = (   0.1666667   0.2886751   0.0000000), wk =   0.0833333
        k(   14) = (   0.1666667   0.3849002   0.0000000), wk =   0.1666667
        k(   15) = (   0.1666667   0.4811252   0.0000000), wk =   0.1666667
        k(   16) = (   0.1666667   0.5773503   0.0000000), wk =   0.0833333
        k(   17) = (   0.2500000   0.4330127   0.0000000), wk =   0.0833333
        k(   18) = (   0.2500000   0.5292377   0.0000000), wk =   0.1666667
        k(   19) = (   0.3333333   0.5773503   0.0000000), wk =   0.0277778

     Dense  grid:    21637 G-vectors     FFT dimensions: (  20,  20, 125)

     Estimated max dynamical RAM per process >       6.23 MB

     Estimated total dynamical RAM >      43.58 MB

     Check: negative core charge=   -0.000013

     Initial potential from superposition of free atoms

     starting charge      15.9998, renormalised to      16.0000

     negative rho (up, down):  2.879E-04 0.000E+00
     Starting wfcs are   16 randomized atomic wfcs

     total cpu time spent up to now is        0.6 secs

     per-process dynamical memory:    10.2 Mb

     Self-consistent Calculation

     iteration #  1     ecut=    45.00 Ry     beta= 0.70
     Davidson diagonalization with overlap
     ethr =  1.00E-02,  avg # of iterations =  7.5

     negative rho (up, down):  2.569E-03 0.000E+00

     total cpu time spent up to now is        1.4 secs

     total energy              =     -32.61157775 Ry
     estimated scf accuracy    <       6.74319848 Ry

     iteration #  2     ecut=    45.00 Ry     beta= 0.70
     Davidson diagonalization with overlap
     ethr =  1.00E-02,  avg # of iterations =  5.7

     negative rho (up, down):  9.678E-05 0.000E+00

     total cpu time spent up to now is        2.0 secs

     total energy              =     -34.50398760 Ry
     estimated scf accuracy    <       4.77184954 Ry

     iteration #  3     ecut=    45.00 Ry     beta= 0.70
     Davidson diagonalization with overlap
     ethr =  1.00E-02,  avg # of iterations =  3.3

     negative rho (up, down):  3.677E-04 0.000E+00

     total cpu time spent up to now is        2.4 secs

     total energy              =     -35.22166436 Ry
     estimated scf accuracy    <       0.09951023 Ry

     iteration #  4     ecut=    45.00 Ry     beta= 0.70
     Davidson diagonalization with overlap
     c_bands:  1 eigenvalues not converged
     ethr =  6.22E-04,  avg # of iterations = 11.8

     negative rho (up, down):  5.832E-04 0.000E+00

     total cpu time spent up to now is        3.3 secs

     total energy              =     -35.42434315 Ry
     estimated scf accuracy    <       0.13575986 Ry

     iteration #  5     ecut=    45.00 Ry     beta= 0.70
     Davidson diagonalization with overlap
     c_bands:  1 eigenvalues not converged
     ethr =  6.22E-04,  avg # of iterations =  5.5

     negative rho (up, down):  1.562E-03 0.000E+00

     total cpu time spent up to now is        3.8 secs

     total energy              =     -35.45741508 Ry
     estimated scf accuracy    <       0.00254121 Ry

     iteration #  6     ecut=    45.00 Ry     beta= 0.70
     Davidson diagonalization with overlap
     c_bands:  3 eigenvalues not converged
     c_bands:  3 eigenvalues not converged
     c_bands:  3 eigenvalues not converged
     c_bands:  2 eigenvalues not converged
     c_bands:  1 eigenvalues not converged
     c_bands:  1 eigenvalues not converged
     c_bands:  2 eigenvalues not converged
     c_bands:  2 eigenvalues not converged
     c_bands:  2 eigenvalues not converged
     c_bands:  1 eigenvalues not converged
     c_bands:  1 eigenvalues not converged
     c_bands:  2 eigenvalues not converged
     c_bands:  2 eigenvalues not converged
     c_bands:  1 eigenvalues not converged
     c_bands:  1 eigenvalues not converged
     c_bands:  2 eigenvalues not converged
     c_bands:  1 eigenvalues not converged
     ethr =  1.59E-05,  avg # of iterations = 19.6

     negative rho (up, down):  1.747E-03 0.000E+00

     total cpu time spent up to now is        4.6 secs

     total energy              =     -35.46212812 Ry
     estimated scf accuracy    <       0.04301096 Ry

     iteration #  7     ecut=    45.00 Ry     beta= 0.70
     Davidson diagonalization with overlap
     c_bands:  2 eigenvalues not converged
     c_bands:  1 eigenvalues not converged
     ethr =  1.59E-05,  avg # of iterations =  9.5

     negative rho (up, down):  1.777E-03 0.000E+00

     total cpu time spent up to now is        5.1 secs

     total energy              =     -35.46234038 Ry
     estimated scf accuracy    <       0.01125922 Ry

     iteration #  8     ecut=    45.00 Ry     beta= 0.70
     Davidson diagonalization with overlap
     ethr =  1.59E-05,  avg # of iterations =  1.9

     negative rho (up, down):  1.930E-03 0.000E+00

     total cpu time spent up to now is        5.3 secs

     total energy              =     -35.46004457 Ry
     estimated scf accuracy    <       0.00557047 Ry

     iteration #  9     ecut=    45.00 Ry     beta= 0.70
     Davidson diagonalization with overlap
     ethr =  1.59E-05,  avg # of iterations =  5.4

     negative rho (up, down):  1.976E-03 0.000E+00

     total cpu time spent up to now is        5.7 secs

     total energy              =     -35.46188564 Ry
     estimated scf accuracy    <       0.00013462 Ry

     iteration # 10     ecut=    45.00 Ry     beta= 0.70
     Davidson diagonalization with overlap
     c_bands:  1 eigenvalues not converged
     c_bands:  1 eigenvalues not converged
     ethr =  8.41E-07,  avg # of iterations = 11.7

     negative rho (up, down):  1.892E-03 0.000E+00

     total cpu time spent up to now is        6.2 secs

     total energy              =     -35.46206455 Ry
     estimated scf accuracy    <       0.00039937 Ry

     iteration # 11     ecut=    45.00 Ry     beta= 0.70
     Davidson diagonalization with overlap
     c_bands:  1 eigenvalues not converged
     ethr =  8.41E-07,  avg # of iterations =  2.9

     negative rho (up, down):  1.859E-03 0.000E+00

     total cpu time spent up to now is        6.6 secs

     total energy              =     -35.46206335 Ry
     estimated scf accuracy    <       0.00007460 Ry

     iteration # 12     ecut=    45.00 Ry     beta= 0.70
     Davidson diagonalization with overlap
     ethr =  4.66E-07,  avg # of iterations =  4.3

     negative rho (up, down):  1.857E-03 0.000E+00

     total cpu time spent up to now is        7.0 secs

     total energy              =     -35.46208728 Ry
     estimated scf accuracy    <       0.00000012 Ry

     iteration # 13     ecut=    45.00 Ry     beta= 0.70
     Davidson diagonalization with overlap
     ethr =  7.38E-10,  avg # of iterations = 25.6

     negative rho (up, down):  1.858E-03 0.000E+00

     total cpu time spent up to now is        9.4 secs

     total energy              =     -35.46209608 Ry
     estimated scf accuracy    <       0.00001447 Ry

     iteration # 14     ecut=    45.00 Ry     beta= 0.70
     Davidson diagonalization with overlap
     ethr =  7.38E-10,  avg # of iterations =  4.6

     negative rho (up, down):  1.860E-03 0.000E+00

     total cpu time spent up to now is        9.9 secs

     total energy              =     -35.46209147 Ry
     estimated scf accuracy    <       0.00001008 Ry

     iteration # 15     ecut=    45.00 Ry     beta= 0.70
     Davidson diagonalization with overlap
     ethr =  7.38E-10,  avg # of iterations = 13.8

     negative rho (up, down):  1.861E-03 0.000E+00

     total cpu time spent up to now is       11.1 secs

     total energy              =     -35.46209380 Ry
     estimated scf accuracy    <       0.00000016 Ry

     iteration # 16     ecut=    45.00 Ry     beta= 0.70
     Davidson diagonalization with overlap
     c_bands:  1 eigenvalues not converged
     ethr =  7.38E-10,  avg # of iterations =  2.6

     negative rho (up, down):  1.861E-03 0.000E+00

     total cpu time spent up to now is       11.4 secs

     total energy              =     -35.46209381 Ry
     estimated scf accuracy    <       0.00000029 Ry

     iteration # 17     ecut=    45.00 Ry     beta= 0.70
     Davidson diagonalization with overlap
     ethr =  7.38E-10,  avg # of iterations =  1.8

     negative rho (up, down):  1.861E-03 0.000E+00

     total cpu time spent up to now is       11.7 secs

     total energy              =     -35.46209372 Ry
     estimated scf accuracy    <       0.00000031 Ry

     iteration # 18     ecut=    45.00 Ry     beta= 0.70
     Davidson diagonalization with overlap
     ethr =  7.38E-10,  avg # of iterations =  1.2

     negative rho (up, down):  1.860E-03 0.000E+00

     total cpu time spent up to now is       12.0 secs

     total energy              =     -35.46209370 Ry
     estimated scf accuracy    <       0.00000008 Ry

     iteration # 19     ecut=    45.00 Ry     beta= 0.70
     Davidson diagonalization with overlap
     ethr =  5.10E-10,  avg # of iterations =  3.1

     negative rho (up, down):  1.860E-03 0.000E+00

     total cpu time spent up to now is       12.3 secs

     End of self-consistent calculation

          k = 0.0000 0.0000 0.0000 (  2629 PWs)   bands (ev):

   -29.6893 -22.0092 -22.0092 -16.5889  -9.3868  -9.3868  -4.9433   3.5516
     3.6384   4.2549   4.7624   5.6602

          k = 0.0000 0.0962 0.0000 (  2663 PWs)   bands (ev):

   -29.6751 -22.2868 -22.1514 -16.4127  -9.1341  -8.7710  -4.8129   3.3807
     3.8564   3.9897   4.8775   5.8111

          k = 0.0000 0.1925 0.0000 (  2691 PWs)   bands (ev):

   -29.6354 -22.9569 -22.5212 -15.8692  -8.4168  -7.1015  -4.4455   1.5147
     4.3506   4.5791   4.7483   5.8941

          k = 0.0000 0.2887 0.0000 (  2687 PWs)   bands (ev):

   -29.5781 -23.7254 -22.9995 -14.9451  -7.3260  -4.7283  -3.9853  -0.9285
     3.5414   5.6651   5.7536   6.4131

          k = 0.0000 0.3849 0.0000 (  2706 PWs)   bands (ev):

   -29.5175 -24.3817 -23.4521 -13.6940  -6.0227  -4.5150  -2.1770  -1.9859
     2.5126   3.9841   6.7312   7.1893

          k = 0.0000 0.4811 0.0000 (  2702 PWs)   bands (ev):

   -29.4703 -24.8102 -23.7688 -12.2389  -6.7461  -4.3603  -1.5432   0.7745
     1.5997   1.6462   5.2974   9.0782

          k = 0.0000-0.5774 0.0000 (  2716 PWs)   bands (ev):

   -29.4524 -24.9587 -23.8821 -11.3251  -7.9016  -3.5852  -0.7029   0.1037
     1.1619   2.7190   3.9314  10.8384

          k = 0.0833 0.1443 0.0000 (  2687 PWs)   bands (ev):

   -29.6474 -22.8212 -22.3384 -16.0516  -8.6793  -7.6063  -4.5617   2.2011
     4.2493   4.3711   4.6789   5.7047

          k = 0.0833 0.2406 0.0000 (  2698 PWs)   bands (ev):

   -29.5927 -23.6593 -22.6155 -15.3143  -7.8398  -5.5585  -4.1081   0.0977
     3.3967   5.2158   5.2840   6.3494

          k = 0.0833 0.3368 0.0000 (  2705 PWs)   bands (ev):

   -29.5164 -24.5074 -22.9153 -14.2224  -6.6797  -3.9170  -2.9216  -2.0118
     2.2067   4.8355   6.5118   6.6502

          k = 0.0833 0.4330 0.0000 (  2710 PWs)   bands (ev):

   -29.4340 -25.1772 -23.1594 -12.8436  -5.7660  -5.0010  -2.0579  -0.3336
     1.3500   2.5186   6.9465   8.3188

          k = 0.0833 0.5292 0.0000 (  2713 PWs)   bands (ev):

   -29.3768 -25.5475 -23.2942 -11.4858  -7.4233  -3.9236  -1.1701   0.0509
     0.5051   2.7005   5.4588  10.2732

          k = 0.1667 0.2887 0.0000 (  2703 PWs)   bands (ev):

   -29.5042 -24.6435 -22.6118 -14.4032  -7.0105  -3.7967  -3.1256  -1.7043
     1.6888   5.1095   6.3007   6.4196

          k = 0.1667 0.3849 0.0000 (  2709 PWs)   bands (ev):

   -29.3628 -25.5787 -22.6005 -13.1693  -5.9145  -4.1554  -2.9004  -0.9179
     0.8614   2.9779   7.7028   8.0056

          k = 0.1667 0.4811 0.0000 (  2736 PWs)   bands (ev):

   -29.2004 -26.2714 -22.5939 -11.7561  -6.2534  -4.5505  -2.5164  -0.7553
     0.7682   2.9087   7.8298   9.8233

          k = 0.1667 0.5774 0.0000 (  2725 PWs)   bands (ev):

   -29.1183 -26.5377 -22.5919 -10.8771  -7.3664  -3.7742  -2.3094  -0.6619
    -0.5757   4.7469   6.5026  11.4333

          k = 0.2500 0.4330 0.0000 (  2739 PWs)   bands (ev):

   -29.0932 -26.5765 -22.3166 -11.8689  -5.2056  -4.7747  -3.8110  -0.9253
     0.8730   3.0138   9.0771   9.8045

          k = 0.2500 0.5292 0.0000 (  2751 PWs)   bands (ev):

   -28.7733 -27.2892 -22.1541 -10.6537  -6.4415  -4.2651  -3.7336  -1.2755
    -0.4953   5.7243   8.5847  11.0193

          k = 0.3333 0.5774 0.0000 (  2763 PWs)   bands (ev):

   -28.1353 -28.1353 -21.9901 -10.1194  -5.8119  -5.8118  -2.5889  -2.5888
    -0.6014   8.0932   9.0642   9.0644

     the Fermi energy is     0.4245 ev

!    total energy              =     -35.46209372 Ry
     estimated scf accuracy    <          9.4E-11 Ry
     smearing contrib. (-TS)   =       0.00066118 Ry
     internal energy E=F+TS    =     -35.46275490 Ry

     The total energy is F=E-TS. E is the sum of the following terms:
     one-electron contribution =    -617.10964938 Ry
     hartree contribution      =     311.97618068 Ry
     xc contribution           =     -19.65087592 Ry
     ewald contribution        =     289.32158973 Ry

     convergence has been achieved in  19 iterations

     negative rho (up, down):  1.860E-03 0.000E+00

     Forces acting on atoms (cartesian axes, Ry/au):

     atom    1 type  1   force =     0.00000000    0.00000000  -24.38930011
     atom    2 type  1   force =     0.00000000    0.00000000   -0.43025982
     atom    3 type  1   force =     0.00000000    0.00000000    0.43028239
     atom    4 type  1   force =     0.00000000   -0.00000000   24.38927753

     Total force =    34.497030     Total SCF correction =     0.000011


     Computing stress (Cartesian axis) and pressure


     negative rho (up, down):  1.860E-03 0.000E+00
          total   stress  (Ry/bohr**3)                   (kbar)     P=     2861.58
   0.00749983   0.00000000   0.00000000         1103.26        0.00        0.00
   0.00000000   0.00749983   0.00000000            0.00     1103.26        0.00
   0.00000000   0.00000000   0.04335816            0.00        0.00     6378.21


     Writing all to output data dir /run/media/rfa/SATA/Skripsi/DFT/Graphene-copy/tmp/gr-ab-2L.save/ :
     XML data file, charge density, pseudopotentials, collected wavefunctions

     init_run     :      0.43s CPU      0.44s WALL (       1 calls)
     electrons    :     21.30s CPU     11.79s WALL (       1 calls)
     forces       :      0.10s CPU      0.06s WALL (       1 calls)
     stress       :      0.27s CPU      0.16s WALL (       1 calls)

     Called by init_run:
     wfcinit      :      0.27s CPU      0.15s WALL (       1 calls)
     potinit      :      0.00s CPU      0.01s WALL (       1 calls)
     hinit0       :      0.14s CPU      0.26s WALL (       1 calls)

     Called by electrons:
     c_bands      :     19.13s CPU     10.54s WALL (      19 calls)
     sum_band     :      1.58s CPU      0.87s WALL (      19 calls)
     v_of_rho     :      0.34s CPU      0.20s WALL (      20 calls)
     newd         :      0.13s CPU      0.11s WALL (      20 calls)
     mix_rho      :      0.08s CPU      0.04s WALL (      19 calls)

     Called by c_bands:
     init_us_2    :      0.36s CPU      0.18s WALL (     779 calls)
     cegterg      :     18.45s CPU     10.12s WALL (     380 calls)

     Called by *egterg:
     cdiaghg      :      2.45s CPU      1.31s WALL (    3074 calls)
     h_psi        :     12.35s CPU      6.81s WALL (    3093 calls)
     s_psi        :      0.47s CPU      0.26s WALL (    3093 calls)
     g_psi        :      0.21s CPU      0.11s WALL (    2694 calls)

     Called by h_psi:
     h_psi:calbec :      1.27s CPU      0.71s WALL (    3093 calls)
     vloc_psi     :     10.29s CPU      5.65s WALL (    3093 calls)
     add_vuspsi   :      0.61s CPU      0.33s WALL (    3093 calls)

     General routines
     calbec       :      1.49s CPU      0.83s WALL (    3777 calls)
     fft          :      0.22s CPU      0.31s WALL (     245 calls)
     ffts         :      0.01s CPU      0.00s WALL (      19 calls)
     fftw         :      9.26s CPU      5.06s WALL (   46896 calls)

     Parallel routines

     PWSCF        :     22.23s CPU     12.74s WALL


   This run was terminated on:  14:51:21  16Apr2025            

=------------------------------------------------------------------------------=
   JOB DONE.
=------------------------------------------------------------------------------=
