
     Program PWSCF v.7.4.1 starts on 16Apr2025 at 14:50:44 

     This program is part of the open-source Quantum ESPRESSO suite
     for quantum simulation of materials; please cite
         "P. Giannozzi et al., J. Phys.:Condens. Matter 21 395502 (2009);
         "P. Giannozzi et al., J. Phys.:Condens. Matter 29 465901 (2017);
         "P. Giannozzi et al., J. Chem. Phys. 152 154105 (2020);
          URL http://www.quantum-espresso.org", 
     in publications or presentations arising from this work. More details at
     http://www.quantum-espresso.org/quote

     Parallel version (MPI), running on     7 processors

     MPI processes distributed on     1 nodes
     13354 MiB available memory on the printing compute node when the environment starts

     Waiting for input...
     Reading input from standard input

     Current dimensions of program PWSCF are:
     Max number of different atomic species (ntypx) = 10
     Max number of k-points (npk) =  40000
     Max angular momentum in pseudopotentials (lmaxx) =  4

     R & G space division:  proc/nbgrp/npool/nimage =       7
     Subspace diagonalization in iterative solution of the eigenvalue problem:
     a serial algorithm will be used


     Parallelization info
     --------------------
     sticks:   dense  smooth     PW     G-vecs:    dense   smooth      PW
     Min          26      26      8                 1676     1676     330
     Max          27      27     10                 1681     1681     342
     Sum         187     187     61                11745    11745    2349

     Using Slab Decomposition



     bravais-lattice index     =            4
     lattice parameter (alat)  =       4.6561  a.u.
     unit-cell volume          =     532.1899 (a.u.)^3
     number of atoms/cell      =            4
     number of atomic types    =            1
     number of electrons       =        16.00
     number of Kohn-Sham states=           12
     kinetic-energy cutoff     =      30.0000  Ry
     charge density cutoff     =     120.0000  Ry
     scf convergence threshold =      1.0E-08
     mixing beta               =       0.7000
     number of iterations used =            8  plain     mixing
     Exchange-correlation= PBE
                           (   1   4   3   4   0   0   0)

     celldm(1)=   4.656107  celldm(2)=   0.000000  celldm(3)=   6.087896
     celldm(4)=   0.000000  celldm(5)=   0.000000  celldm(6)=   0.000000

     crystal axes: (cart. coord. in units of alat)
               a(1) = (   1.000000   0.000000   0.000000 )  
               a(2) = (  -0.500000   0.866025   0.000000 )  
               a(3) = (   0.000000   0.000000   6.087896 )  

     reciprocal axes: (cart. coord. in units 2 pi/alat)
               b(1) = (  1.000000  0.577350 -0.000000 )  
               b(2) = (  0.000000  1.154701  0.000000 )  
               b(3) = (  0.000000 -0.000000  0.164260 )  


     PseudoPot. # 1 for C  read from file:
     /run/media/rfa/SATA/Skripsi/DFT/Graphene-copy/pseudo/C.pbe-n-rrkjus_psl.0.1.UPF
     MD5 check sum: 96a6a315177d77e6c95bf6fd3870f9e3
     Pseudo is Ultrasoft + core correction, Zval =  4.0
     Generated using &quot;atomic&quot; code by A. Dal Corso  v.6.3MaX
     Using radial grid of 1073 points,  4 beta functions with: 
                l(1) =   0
                l(2) =   0
                l(3) =   1
                l(4) =   1
     Q(r) pseudized with 0 coefficients 


     atomic species   valence    mass     pseudopotential
     C                 4.00    12.01070     C ( 1.00)

      6 Sym. Ops. (no inversion) found



   Cartesian axes

     site n.     atom                  positions (alat units)
         1        C      tau(   1) = (   0.0000000   0.5773503   3.0439478  )
         2        C      tau(   2) = (   0.5000000   0.2886751   3.0439478  )
         3        C      tau(   3) = (   0.0000000   0.0000000   3.2468777  )
         4        C      tau(   4) = (   0.0000000   0.5773503   3.2468777  )

     number of k points=    19  Marzari-Vanderbilt smearing, width (Ry)=  0.0200
                       cart. coord. in units 2pi/alat
        k(    1) = (   0.0000000   0.0000000   0.0000000), wk =   0.0138889
        k(    2) = (   0.0000000   0.0962250   0.0000000), wk =   0.0833333
        k(    3) = (   0.0000000   0.1924501   0.0000000), wk =   0.0833333
        k(    4) = (   0.0000000   0.2886751   0.0000000), wk =   0.0833333
        k(    5) = (   0.0000000   0.3849002   0.0000000), wk =   0.0833333
        k(    6) = (   0.0000000   0.4811252   0.0000000), wk =   0.0833333
        k(    7) = (   0.0000000  -0.5773503   0.0000000), wk =   0.0416667
        k(    8) = (   0.0833333   0.1443376   0.0000000), wk =   0.0833333
        k(    9) = (   0.0833333   0.2405626   0.0000000), wk =   0.1666667
        k(   10) = (   0.0833333   0.3367877   0.0000000), wk =   0.1666667
        k(   11) = (   0.0833333   0.4330127   0.0000000), wk =   0.1666667
        k(   12) = (   0.0833333   0.5292377   0.0000000), wk =   0.1666667
        k(   13) = (   0.1666667   0.2886751   0.0000000), wk =   0.0833333
        k(   14) = (   0.1666667   0.3849002   0.0000000), wk =   0.1666667
        k(   15) = (   0.1666667   0.4811252   0.0000000), wk =   0.1666667
        k(   16) = (   0.1666667   0.5773503   0.0000000), wk =   0.0833333
        k(   17) = (   0.2500000   0.4330127   0.0000000), wk =   0.0833333
        k(   18) = (   0.2500000   0.5292377   0.0000000), wk =   0.1666667
        k(   19) = (   0.3333333   0.5773503   0.0000000), wk =   0.0277778

     Dense  grid:    11745 G-vectors     FFT dimensions: (  18,  18, 100)

     Estimated max dynamical RAM per process >       3.53 MB

     Estimated total dynamical RAM >      24.74 MB

     Check: negative core charge=   -0.000018

     Initial potential from superposition of free atoms

     starting charge      15.9998, renormalised to      16.0000

     negative rho (up, down):  3.865E-03 0.000E+00
     Starting wfcs are   16 randomized atomic wfcs

     total cpu time spent up to now is        0.7 secs

     per-process dynamical memory:     8.9 Mb

     Self-consistent Calculation

     iteration #  1     ecut=    30.00 Ry     beta= 0.70
     Davidson diagonalization with overlap
     ethr =  1.00E-02,  avg # of iterations =  5.9

     negative rho (up, down):  3.543E-02 0.000E+00

     total cpu time spent up to now is        1.1 secs

     total energy              =     -32.83698189 Ry
     estimated scf accuracy    <       5.91353151 Ry

     iteration #  2     ecut=    30.00 Ry     beta= 0.70
     Davidson diagonalization with overlap
     ethr =  1.00E-02,  avg # of iterations =  5.9

     negative rho (up, down):  1.695E-03 0.000E+00

     total cpu time spent up to now is        1.3 secs

     total energy              =     -33.76152854 Ry
     estimated scf accuracy    <       5.47287518 Ry

     iteration #  3     ecut=    30.00 Ry     beta= 0.70
     Davidson diagonalization with overlap
     ethr =  1.00E-02,  avg # of iterations =  4.8

     negative rho (up, down):  4.134E-03 0.000E+00

     total cpu time spent up to now is        1.5 secs

     total energy              =     -35.14266970 Ry
     estimated scf accuracy    <       0.11349926 Ry

     iteration #  4     ecut=    30.00 Ry     beta= 0.70
     Davidson diagonalization with overlap
     ethr =  7.09E-04,  avg # of iterations =  7.9

     negative rho (up, down):  7.983E-03 0.000E+00

     total cpu time spent up to now is        2.5 secs

     total energy              =     -35.17569839 Ry
     estimated scf accuracy    <       0.07654249 Ry

     iteration #  5     ecut=    30.00 Ry     beta= 0.70
     Davidson diagonalization with overlap
     ethr =  4.78E-04,  avg # of iterations =  5.7

     negative rho (up, down):  1.253E-02 0.000E+00

     total cpu time spent up to now is        2.7 secs

     total energy              =     -35.18376456 Ry
     estimated scf accuracy    <       0.01206227 Ry

     iteration #  6     ecut=    30.00 Ry     beta= 0.70
     Davidson diagonalization with overlap
     c_bands:  1 eigenvalues not converged
     c_bands:  1 eigenvalues not converged
     ethr =  7.54E-05,  avg # of iterations = 12.1

     negative rho (up, down):  2.002E-02 0.000E+00

     total cpu time spent up to now is        3.2 secs

     total energy              =     -35.18512871 Ry
     estimated scf accuracy    <       0.00532938 Ry

     iteration #  7     ecut=    30.00 Ry     beta= 0.70
     Davidson diagonalization with overlap
     c_bands:  1 eigenvalues not converged
     ethr =  3.33E-05,  avg # of iterations =  9.5

     negative rho (up, down):  2.076E-02 0.000E+00

     total cpu time spent up to now is        3.4 secs

     total energy              =     -35.18577985 Ry
     estimated scf accuracy    <       0.00035302 Ry

     iteration #  8     ecut=    30.00 Ry     beta= 0.70
     Davidson diagonalization with overlap
     c_bands:  1 eigenvalues not converged
     c_bands:  1 eigenvalues not converged
     c_bands:  1 eigenvalues not converged
     ethr =  2.21E-06,  avg # of iterations = 10.1

     negative rho (up, down):  2.278E-02 0.000E+00

     total cpu time spent up to now is        3.7 secs

     total energy              =     -35.18602305 Ry
     estimated scf accuracy    <       0.00009428 Ry

     iteration #  9     ecut=    30.00 Ry     beta= 0.70
     Davidson diagonalization with overlap
     c_bands:  1 eigenvalues not converged
     c_bands:  1 eigenvalues not converged
     ethr =  5.89E-07,  avg # of iterations = 10.9

     negative rho (up, down):  2.273E-02 0.000E+00

     total cpu time spent up to now is        4.0 secs

     total energy              =     -35.18604779 Ry
     estimated scf accuracy    <       0.00000154 Ry

     iteration # 10     ecut=    30.00 Ry     beta= 0.70
     Davidson diagonalization with overlap
     c_bands:  1 eigenvalues not converged
     c_bands:  1 eigenvalues not converged
     ethr =  9.62E-09,  avg # of iterations =  8.7

     negative rho (up, down):  2.274E-02 0.000E+00

     total cpu time spent up to now is        4.2 secs

     total energy              =     -35.18605250 Ry
     estimated scf accuracy    <       0.00000305 Ry

     iteration # 11     ecut=    30.00 Ry     beta= 0.70
     Davidson diagonalization with overlap
     c_bands:  1 eigenvalues not converged
     ethr =  9.62E-09,  avg # of iterations =  4.9

     negative rho (up, down):  2.273E-02 0.000E+00

     total cpu time spent up to now is        4.4 secs

     total energy              =     -35.18605344 Ry
     estimated scf accuracy    <       0.00000052 Ry

     iteration # 12     ecut=    30.00 Ry     beta= 0.70
     Davidson diagonalization with overlap
     ethr =  3.23E-09,  avg # of iterations =  2.1

     negative rho (up, down):  2.273E-02 0.000E+00

     total cpu time spent up to now is        4.6 secs

     total energy              =     -35.18605352 Ry
     estimated scf accuracy    <       0.00000002 Ry

     iteration # 13     ecut=    30.00 Ry     beta= 0.70
     Davidson diagonalization with overlap
     ethr =  1.40E-10,  avg # of iterations =  5.7

     negative rho (up, down):  2.272E-02 0.000E+00

     total cpu time spent up to now is        4.8 secs

     End of self-consistent calculation

          k = 0.0000 0.0000 0.0000 (  1435 PWs)   bands (ev):

   -29.7539 -22.1779 -22.1779 -15.9915  -9.3491  -9.3491  -5.1999   2.8075
     3.0106   4.0939   4.9983   5.4377

          k = 0.0000 0.0962 0.0000 (  1419 PWs)   bands (ev):

   -29.7411 -22.4486 -22.3031 -15.8000  -9.1037  -8.7395  -5.0709   3.0305
     3.2434   4.2519   4.8346   5.4135

          k = 0.0000 0.1925 0.0000 (  1451 PWs)   bands (ev):

   -29.7085 -23.1133 -22.6744 -15.2593  -8.4210  -7.0806  -4.7038   2.6696
     3.6866   3.9353   4.4520   5.3390

          k = 0.0000 0.2887 0.0000 (  1473 PWs)   bands (ev):

   -29.6635 -23.8778 -23.1325 -14.3085  -7.3636  -4.7250  -4.2097  -0.1451
     3.7214   4.8781   5.0826   6.2111

          k = 0.0000 0.3849 0.0000 (  1477 PWs)   bands (ev):

   -29.6137 -24.5277 -23.5570 -12.9660  -6.0806  -4.2883  -2.0991  -1.9917
     2.8583   3.8591   6.4258   6.6466

          k = 0.0000 0.4811 0.0000 (  1483 PWs)   bands (ev):

   -29.5747 -24.9550 -23.8544 -11.3556  -6.5175  -4.4057  -1.8347   0.7553
     1.4929   2.0548   5.2221   8.4048

          k = 0.0000-0.5774 0.0000 (  1488 PWs)   bands (ev):

   -29.5595 -25.1047 -23.9614 -10.0548  -7.9550  -3.6931  -1.0862  -0.0309
     1.7265   2.6834   3.8670  10.5571

          k = 0.0833 0.1443 0.0000 (  1444 PWs)   bands (ev):

   -29.7188 -22.9748 -22.5015 -15.4275  -8.6736  -7.5883  -4.8213   3.4675
     3.6746   3.7074   4.2847   5.1194

          k = 0.0833 0.2406 0.0000 (  1470 PWs)   bands (ev):

   -29.6731 -23.8062 -22.7616 -14.7048  -7.8613  -5.5621  -4.3651   1.1613
     3.3146   4.4077   4.6243   5.7081

          k = 0.0833 0.3368 0.0000 (  1485 PWs)   bands (ev):

   -29.6080 -24.6503 -23.0401 -13.5610  -6.7284  -4.0139  -2.9540  -1.4139
     2.2962   4.7081   5.7315   5.9945

          k = 0.0833 0.4330 0.0000 (  1487 PWs)   bands (ev):

   -29.5359 -25.3113 -23.2654 -12.0649  -5.6576  -4.8391  -2.1874  -0.3329
     1.5101   2.3941   6.8628   7.6164

          k = 0.0833 0.5292 0.0000 (  1493 PWs)   bands (ev):

   -29.4842 -25.6784 -23.3904 -10.4073  -7.3319  -4.0098  -1.4566   0.1469
     0.5238   2.6877   5.4670   9.7055

          k = 0.1667 0.2887 0.0000 (  1472 PWs)   bands (ev):

   -29.5935 -24.7783 -22.7420 -13.7457  -7.0506  -4.0012  -3.1917  -0.6901
     1.4840   4.9776   5.5116   5.7670

          k = 0.1667 0.3849 0.0000 (  1483 PWs)   bands (ev):

   -29.4617 -25.7083 -22.7152 -12.4086  -5.9761  -3.9172  -2.5332  -1.0238
     0.7340   2.8605   7.0118   7.3590

          k = 0.1667 0.4811 0.0000 (  1489 PWs)   bands (ev):

   -29.3061 -26.3947 -22.6962 -10.8105  -5.9768  -4.6036  -2.4152  -0.9908
     0.6055   2.8804   7.7726   9.1668

          k = 0.1667 0.5774 0.0000 (  1496 PWs)   bands (ev):

   -29.2273 -26.6595 -22.6910  -9.6163  -7.4201  -3.8711  -2.0804  -1.0884
    -0.6789   4.6940   6.5102  11.1555

          k = 0.2500 0.4330 0.0000 (  1494 PWs)   bands (ev):

   -29.1988 -26.6938 -22.4215 -10.9850  -5.0495  -4.3699  -3.8951  -1.2899
     0.7023   2.9715   8.6152   9.1647

          k = 0.2500 0.5292 0.0000 (  1491 PWs)   bands (ev):

   -28.8830 -27.4029 -22.2522  -9.4427  -6.3160  -4.1862  -3.8175  -1.4883
    -0.8505   5.6715   8.5346  10.7896

          k = 0.3333 0.5774 0.0000 (  1482 PWs)   bands (ev):

   -28.2434 -28.2432 -22.0863  -8.5896  -5.8614  -5.8607  -2.6924  -2.6918
    -1.0638   8.0160   9.0145   9.0152

     the Fermi energy is     0.6073 ev

!    total energy              =     -35.18605356 Ry
     estimated scf accuracy    <          2.9E-09 Ry
     smearing contrib. (-TS)   =      -0.00126873 Ry
     internal energy E=F+TS    =     -35.18478483 Ry

     The total energy is F=E-TS. E is the sum of the following terms:
     one-electron contribution =    -616.67319315 Ry
     hartree contribution      =     311.78006608 Ry
     xc contribution           =     -19.61324772 Ry
     ewald contribution        =     289.32158995 Ry

     convergence has been achieved in  13 iterations

     negative rho (up, down):  2.272E-02 0.000E+00

     Forces acting on atoms (cartesian axes, Ry/au):

     atom    1 type  1   force =     0.00000000    0.00000000  -25.97397851
     atom    2 type  1   force =     0.00000000   -0.00000000   -0.43444367
     atom    3 type  1   force =     0.00000000    0.00000000    0.43386662
     atom    4 type  1   force =     0.00000000   -0.00000000   25.97455556

     Total force =    36.738292     Total SCF correction =     0.000079


     Computing stress (Cartesian axis) and pressure


     negative rho (up, down):  2.272E-02 0.000E+00
          total   stress  (Ry/bohr**3)                   (kbar)     P=     2839.98
   0.00708476   0.00000000   0.00000000         1042.20        0.00        0.00
   0.00000000   0.00708476   0.00000000            0.00     1042.20        0.00
   0.00000000   0.00000000   0.04374775            0.00        0.00     6435.52


     Writing all to output data dir /run/media/rfa/SATA/Skripsi/DFT/Graphene-copy/tmp/gr-ab-2L.save/ :
     XML data file, charge density, pseudopotentials, collected wavefunctions

     init_run     :      0.45s CPU      0.55s WALL (       1 calls)
     electrons    :      7.43s CPU      4.16s WALL (       1 calls)
     forces       :      0.03s CPU      0.01s WALL (       1 calls)
     stress       :      0.08s CPU      0.05s WALL (       1 calls)

     Called by init_run:
     wfcinit      :      0.24s CPU      0.15s WALL (       1 calls)
     potinit      :      0.01s CPU      0.01s WALL (       1 calls)
     hinit0       :      0.20s CPU      0.37s WALL (       1 calls)

     Called by electrons:
     c_bands      :      6.73s CPU      3.78s WALL (      13 calls)
     sum_band     :      0.57s CPU      0.30s WALL (      13 calls)
     v_of_rho     :      0.07s CPU      0.04s WALL (      14 calls)
     newd         :      0.04s CPU      0.03s WALL (      14 calls)
     mix_rho      :      0.02s CPU      0.01s WALL (      13 calls)

     Called by c_bands:
     init_us_2    :      0.09s CPU      0.05s WALL (     551 calls)
     cegterg      :      6.52s CPU      3.63s WALL (     247 calls)

     Called by *egterg:
     cdiaghg      :      1.03s CPU      0.55s WALL (    2042 calls)
     h_psi        :      4.71s CPU      2.61s WALL (    2061 calls)
     s_psi        :      0.09s CPU      0.05s WALL (    2061 calls)
     g_psi        :      0.04s CPU      0.03s WALL (    1795 calls)

     Called by h_psi:
     h_psi:calbec :      0.61s CPU      0.36s WALL (    2061 calls)
     vloc_psi     :      3.89s CPU      2.10s WALL (    2061 calls)
     add_vuspsi   :      0.15s CPU      0.10s WALL (    2061 calls)

     General routines
     calbec       :      0.65s CPU      0.38s WALL (    2631 calls)
     fft          :      0.21s CPU      0.37s WALL (     179 calls)
     ffts         :      0.00s CPU      0.00s WALL (      13 calls)
     fftw         :      3.84s CPU      2.07s WALL (   25806 calls)

     Parallel routines

     PWSCF        :      8.11s CPU      5.00s WALL


   This run was terminated on:  14:50:49  16Apr2025            

=------------------------------------------------------------------------------=
   JOB DONE.
=------------------------------------------------------------------------------=
