
     Program PWSCF v.7.4.1 starts on 16Apr2025 at 14:50:32 

     This program is part of the open-source Quantum ESPRESSO suite
     for quantum simulation of materials; please cite
         "P. Giannozzi et al., J. Phys.:Condens. Matter 21 395502 (2009);
         "P. Giannozzi et al., J. Phys.:Condens. Matter 29 465901 (2017);
         "P. Giannozzi et al., J. Chem. Phys. 152 154105 (2020);
          URL http://www.quantum-espresso.org", 
     in publications or presentations arising from this work. More details at
     http://www.quantum-espresso.org/quote

     Parallel version (MPI), running on     7 processors

     MPI processes distributed on     1 nodes
     13336 MiB available memory on the printing compute node when the environment starts

     Waiting for input...
     Reading input from standard input

     Current dimensions of program PWSCF are:
     Max number of different atomic species (ntypx) = 10
     Max number of k-points (npk) =  40000
     Max angular momentum in pseudopotentials (lmaxx) =  4

     R & G space division:  proc/nbgrp/npool/nimage =       7
     Subspace diagonalization in iterative solution of the eigenvalue problem:
     a serial algorithm will be used


     Parallelization info
     --------------------
     sticks:   dense  smooth     PW     G-vecs:    dense   smooth      PW
     Min          18      18      6                 1042     1042     210
     Max          19      19      7                 1062     1062     224
     Sum         127     127     43                 7339     7339    1521

     Using Slab Decomposition



     bravais-lattice index     =            4
     lattice parameter (alat)  =       4.6561  a.u.
     unit-cell volume          =     532.1899 (a.u.)^3
     number of atoms/cell      =            4
     number of atomic types    =            1
     number of electrons       =        16.00
     number of Kohn-Sham states=           12
     kinetic-energy cutoff     =      22.0000  Ry
     charge density cutoff     =      88.0000  Ry
     scf convergence threshold =      1.0E-08
     mixing beta               =       0.7000
     number of iterations used =            8  plain     mixing
     Exchange-correlation= PBE
                           (   1   4   3   4   0   0   0)

     celldm(1)=   4.656107  celldm(2)=   0.000000  celldm(3)=   6.087896
     celldm(4)=   0.000000  celldm(5)=   0.000000  celldm(6)=   0.000000

     crystal axes: (cart. coord. in units of alat)
               a(1) = (   1.000000   0.000000   0.000000 )  
               a(2) = (  -0.500000   0.866025   0.000000 )  
               a(3) = (   0.000000   0.000000   6.087896 )  

     reciprocal axes: (cart. coord. in units 2 pi/alat)
               b(1) = (  1.000000  0.577350 -0.000000 )  
               b(2) = (  0.000000  1.154701  0.000000 )  
               b(3) = (  0.000000 -0.000000  0.164260 )  


     PseudoPot. # 1 for C  read from file:
     /run/media/rfa/SATA/Skripsi/DFT/Graphene-copy/pseudo/C.pbe-n-rrkjus_psl.0.1.UPF
     MD5 check sum: 96a6a315177d77e6c95bf6fd3870f9e3
     Pseudo is Ultrasoft + core correction, Zval =  4.0
     Generated using &quot;atomic&quot; code by A. Dal Corso  v.6.3MaX
     Using radial grid of 1073 points,  4 beta functions with: 
                l(1) =   0
                l(2) =   0
                l(3) =   1
                l(4) =   1
     Q(r) pseudized with 0 coefficients 


     atomic species   valence    mass     pseudopotential
     C                 4.00    12.01070     C ( 1.00)

      6 Sym. Ops. (no inversion) found



   Cartesian axes

     site n.     atom                  positions (alat units)
         1        C      tau(   1) = (   0.0000000   0.5773503   3.0439478  )
         2        C      tau(   2) = (   0.5000000   0.2886751   3.0439478  )
         3        C      tau(   3) = (   0.0000000   0.0000000   3.2468777  )
         4        C      tau(   4) = (   0.0000000   0.5773503   3.2468777  )

     number of k points=    19  Marzari-Vanderbilt smearing, width (Ry)=  0.0200
                       cart. coord. in units 2pi/alat
        k(    1) = (   0.0000000   0.0000000   0.0000000), wk =   0.0138889
        k(    2) = (   0.0000000   0.0962250   0.0000000), wk =   0.0833333
        k(    3) = (   0.0000000   0.1924501   0.0000000), wk =   0.0833333
        k(    4) = (   0.0000000   0.2886751   0.0000000), wk =   0.0833333
        k(    5) = (   0.0000000   0.3849002   0.0000000), wk =   0.0833333
        k(    6) = (   0.0000000   0.4811252   0.0000000), wk =   0.0833333
        k(    7) = (   0.0000000  -0.5773503   0.0000000), wk =   0.0416667
        k(    8) = (   0.0833333   0.1443376   0.0000000), wk =   0.0833333
        k(    9) = (   0.0833333   0.2405626   0.0000000), wk =   0.1666667
        k(   10) = (   0.0833333   0.3367877   0.0000000), wk =   0.1666667
        k(   11) = (   0.0833333   0.4330127   0.0000000), wk =   0.1666667
        k(   12) = (   0.0833333   0.5292377   0.0000000), wk =   0.1666667
        k(   13) = (   0.1666667   0.2886751   0.0000000), wk =   0.0833333
        k(   14) = (   0.1666667   0.3849002   0.0000000), wk =   0.1666667
        k(   15) = (   0.1666667   0.4811252   0.0000000), wk =   0.1666667
        k(   16) = (   0.1666667   0.5773503   0.0000000), wk =   0.0833333
        k(   17) = (   0.2500000   0.4330127   0.0000000), wk =   0.0833333
        k(   18) = (   0.2500000   0.5292377   0.0000000), wk =   0.1666667
        k(   19) = (   0.3333333   0.5773503   0.0000000), wk =   0.0277778

     Dense  grid:     7339 G-vectors     FFT dimensions: (  15,  15,  90)

     Estimated max dynamical RAM per process >       2.25 MB

     Estimated total dynamical RAM >      15.78 MB

     Check: negative core charge=   -0.000229

     Initial potential from superposition of free atoms

     starting charge      15.9998, renormalised to      16.0000

     negative rho (up, down):  1.209E-02 0.000E+00
     Starting wfcs are   16 randomized atomic wfcs

     total cpu time spent up to now is        0.5 secs

     per-process dynamical memory:     8.3 Mb

     Self-consistent Calculation

     iteration #  1     ecut=    22.00 Ry     beta= 0.70
     Davidson diagonalization with overlap
     ethr =  1.00E-02,  avg # of iterations =  4.6

     negative rho (up, down):  1.053E-01 0.000E+00

     total cpu time spent up to now is        0.6 secs

     total energy              =     -32.59458675 Ry
     estimated scf accuracy    <       4.40420269 Ry

     iteration #  2     ecut=    22.00 Ry     beta= 0.70
     Davidson diagonalization with overlap
     ethr =  1.00E-02,  avg # of iterations =  5.7

     negative rho (up, down):  2.396E-03 0.000E+00

     total cpu time spent up to now is        0.8 secs

     total energy              =     -31.68829451 Ry
     estimated scf accuracy    <       7.95960000 Ry

     iteration #  3     ecut=    22.00 Ry     beta= 0.70
     Davidson diagonalization with overlap
     ethr =  1.00E-02,  avg # of iterations =  4.7

     negative rho (up, down):  1.011E-02 0.000E+00

     total cpu time spent up to now is        0.9 secs

     total energy              =     -34.35583075 Ry
     estimated scf accuracy    <       0.41861157 Ry

     iteration #  4     ecut=    22.00 Ry     beta= 0.70
     Davidson diagonalization with overlap
     ethr =  2.62E-03,  avg # of iterations =  2.4

     negative rho (up, down):  2.133E-02 0.000E+00

     total cpu time spent up to now is        1.0 secs

     total energy              =     -34.32631511 Ry
     estimated scf accuracy    <       0.19056070 Ry

     iteration #  5     ecut=    22.00 Ry     beta= 0.70
     Davidson diagonalization with overlap
     ethr =  1.19E-03,  avg # of iterations =  2.1

     negative rho (up, down):  3.024E-02 0.000E+00

     total cpu time spent up to now is        1.0 secs

     total energy              =     -34.30580685 Ry
     estimated scf accuracy    <       0.08735587 Ry

     iteration #  6     ecut=    22.00 Ry     beta= 0.70
     Davidson diagonalization with overlap
     ethr =  5.46E-04,  avg # of iterations =  2.5

     negative rho (up, down):  5.930E-02 0.000E+00

     total cpu time spent up to now is        1.1 secs

     total energy              =     -34.27598609 Ry
     estimated scf accuracy    <       0.04709665 Ry

     iteration #  7     ecut=    22.00 Ry     beta= 0.70
     Davidson diagonalization with overlap
     ethr =  2.94E-04,  avg # of iterations =  6.6

     negative rho (up, down):  7.944E-02 0.000E+00

     total cpu time spent up to now is        1.2 secs

     total energy              =     -34.27527037 Ry
     estimated scf accuracy    <       0.00472019 Ry

     iteration #  8     ecut=    22.00 Ry     beta= 0.70
     Davidson diagonalization with overlap
     ethr =  2.95E-05,  avg # of iterations = 10.6

     negative rho (up, down):  8.241E-02 0.000E+00

     total cpu time spent up to now is        1.4 secs

     total energy              =     -34.27609091 Ry
     estimated scf accuracy    <       0.00006048 Ry

     iteration #  9     ecut=    22.00 Ry     beta= 0.70
     Davidson diagonalization with overlap
     c_bands:  1 eigenvalues not converged
     c_bands:  1 eigenvalues not converged
     c_bands:  1 eigenvalues not converged
     ethr =  3.78E-07,  avg # of iterations = 11.5

     negative rho (up, down):  8.087E-02 0.000E+00

     total cpu time spent up to now is        1.6 secs

     total energy              =     -34.27612869 Ry
     estimated scf accuracy    <       0.00003277 Ry

     iteration # 10     ecut=    22.00 Ry     beta= 0.70
     Davidson diagonalization with overlap
     ethr =  2.05E-07,  avg # of iterations =  4.8

     negative rho (up, down):  8.054E-02 0.000E+00

     total cpu time spent up to now is        1.7 secs

     total energy              =     -34.27613193 Ry
     estimated scf accuracy    <       0.00000067 Ry

     iteration # 11     ecut=    22.00 Ry     beta= 0.70
     Davidson diagonalization with overlap
     ethr =  4.16E-09,  avg # of iterations =  4.5

     negative rho (up, down):  8.061E-02 0.000E+00

     total cpu time spent up to now is        1.8 secs

     total energy              =     -34.27613229 Ry
     estimated scf accuracy    <       0.00000015 Ry

     iteration # 12     ecut=    22.00 Ry     beta= 0.70
     Davidson diagonalization with overlap
     ethr =  9.28E-10,  avg # of iterations =  2.1

     negative rho (up, down):  8.060E-02 0.000E+00

     total cpu time spent up to now is        2.0 secs

     End of self-consistent calculation

          k = 0.0000 0.0000 0.0000 (   943 PWs)   bands (ev):

   -30.6113 -23.1548 -23.1548 -15.4580  -9.6930  -9.6930  -5.7351   2.0868
     2.3541   3.4606   4.5303   5.3099

          k = 0.0000 0.0962 0.0000 (   946 PWs)   bands (ev):

   -30.5945 -23.4161 -23.3268 -15.3225  -9.4311  -9.0508  -5.5887   2.3075
     2.5814   3.6170   4.7182   5.2029

          k = 0.0000 0.1925 0.0000 (   952 PWs)   bands (ev):

   -30.5511 -24.1470 -23.6669 -14.7561  -8.8161  -7.4066  -5.2194   2.9603
     3.2094   3.3901   4.2518   5.2284

          k = 0.0000 0.2887 0.0000 (   960 PWs)   bands (ev):

   -30.4879 -24.9086 -24.0824 -13.8117  -7.8668  -5.0396  -4.7930   0.3769
     3.9232   4.3405   4.4544   5.6159

          k = 0.0000 0.3849 0.0000 (   934 PWs)   bands (ev):

   -30.3484 -25.4831 -24.3958 -12.3814  -6.4765  -4.4095  -2.1184  -2.0827
     3.4535   3.6142   5.7375   6.0224

          k = 0.0000 0.4811 0.0000 (   922 PWs)   bands (ev):

   -30.1228 -25.8896 -24.6350 -10.5877  -6.2799  -4.7573  -2.3719   0.7833
     1.6684   3.0145   5.3631   7.7351

          k = 0.0000-0.5774 0.0000 (   906 PWs)   bands (ev):

   -29.9233 -26.0020 -24.6949  -8.8945  -8.1489  -4.3994  -1.8197   0.7806
     2.8397   3.1853   3.9560  10.0828

          k = 0.0833 0.1443 0.0000 (   939 PWs)   bands (ev):

   -30.5580 -23.9462 -23.5000 -14.9109  -9.0218  -7.8762  -5.2578   2.7591
     3.0398   3.9659   4.6154   4.8892

          k = 0.0833 0.2406 0.0000 (   948 PWs)   bands (ev):

   -30.4999 -24.7774 -23.7286 -14.1746  -8.2991  -5.8399  -4.8724   1.9610
     3.4844   3.7852   3.9815   5.0882

          k = 0.0833 0.3368 0.0000 (   946 PWs)   bands (ev):

   -30.3949 -25.5983 -23.9431 -13.0039  -7.1927  -4.4400  -3.1823  -0.9245
     2.6921   4.2309   5.0245   5.3357

          k = 0.0833 0.4330 0.0000 (   919 PWs)   bands (ev):

   -30.1580 -26.2200 -24.0414 -11.3511  -5.8184  -4.7285  -2.4574  -0.1765
     1.9108   2.4140   6.6764   7.1362

          k = 0.0833 0.5292 0.0000 (   915 PWs)   bands (ev):

   -29.9463 -26.5558 -24.1687  -9.4808  -7.1805  -4.5983  -2.0717   0.3238
     1.4859   3.0307   5.7850   9.0835

          k = 0.1667 0.2887 0.0000 (   937 PWs)   bands (ev):

   -30.3843 -25.6139 -23.6357 -13.1796  -7.4331  -4.4617  -3.3602   0.4179
     1.2859   4.5060   4.7970   5.1082

          k = 0.1667 0.3849 0.0000 (   922 PWs)   bands (ev):

   -30.1519 -26.5796 -23.5033 -11.7782  -6.3689  -4.1033  -1.9489  -0.8870
     0.7714   2.5382   6.3284   6.6996

          k = 0.1667 0.4811 0.0000 (   910 PWs)   bands (ev):

   -29.8313 -27.2522 -23.4645  -9.9973  -5.7112  -4.9037  -2.4819  -0.9801
     0.8745   3.1328   7.8217   8.6234

          k = 0.1667 0.5774 0.0000 (   914 PWs)   bands (ev):

   -29.7764 -27.5249 -23.4848  -8.2248  -7.5801  -4.4247  -1.8177  -1.7626
    -0.0743   4.8804   6.8067  10.8522

          k = 0.2500 0.4330 0.0000 (   905 PWs)   bands (ev):

   -29.7857 -27.4707 -23.1903 -10.1913  -5.3489  -4.0725  -3.3385  -1.6505
     0.6930   3.1070   8.0382   8.5129

          k = 0.2500 0.5292 0.0000 (   904 PWs)   bands (ev):

   -29.4762 -28.1578 -23.0417  -8.2936  -6.0183  -4.1502  -3.8255  -1.8457
    -0.9864   5.9201   8.7729  10.5134

          k = 0.3333 0.5774 0.0000 (   900 PWs)   bands (ev):

   -28.8635 -28.8635 -22.9058  -6.6779  -5.9796  -5.9796  -2.6123  -2.6123
    -1.8790   7.7101   9.5743   9.5743

     the Fermi energy is     0.8174 ev

!    total energy              =     -34.27613242 Ry
     estimated scf accuracy    <          9.3E-09 Ry
     smearing contrib. (-TS)   =      -0.00065234 Ry
     internal energy E=F+TS    =     -34.27548008 Ry

     The total energy is F=E-TS. E is the sum of the following terms:
     one-electron contribution =    -614.67301337 Ry
     hartree contribution      =     310.54713970 Ry
     xc contribution           =     -19.47119635 Ry
     ewald contribution        =     289.32158995 Ry

     convergence has been achieved in  12 iterations

     negative rho (up, down):  8.060E-02 0.000E+00

     Forces acting on atoms (cartesian axes, Ry/au):

     atom    1 type  1   force =     0.00000000    0.00000000  -27.55359195
     atom    2 type  1   force =     0.00000000   -0.00000000   -0.49984330
     atom    3 type  1   force =     0.00000000   -0.00000000    0.49984708
     atom    4 type  1   force =     0.00000000    0.00000000   27.55358816

     Total force =    38.973072     Total SCF correction =     0.000106


     Computing stress (Cartesian axis) and pressure


     negative rho (up, down):  8.060E-02 0.000E+00
          total   stress  (Ry/bohr**3)                   (kbar)     P=     2218.51
   0.00170603  -0.00000000   0.00000000          250.97       -0.00        0.00
  -0.00000000   0.00170603   0.00000000           -0.00      250.97        0.00
   0.00000000   0.00000000   0.04183124            0.00        0.00     6153.59


     Writing all to output data dir /run/media/rfa/SATA/Skripsi/DFT/Graphene-copy/tmp/gr-ab-2L.save/ :
     XML data file, charge density, pseudopotentials, collected wavefunctions

     init_run     :      0.26s CPU      0.38s WALL (       1 calls)
     electrons    :      2.44s CPU      1.47s WALL (       1 calls)
     forces       :      0.02s CPU      0.02s WALL (       1 calls)
     stress       :      0.05s CPU      0.06s WALL (       1 calls)

     Called by init_run:
     wfcinit      :      0.09s CPU      0.06s WALL (       1 calls)
     potinit      :      0.00s CPU      0.00s WALL (       1 calls)
     hinit0       :      0.15s CPU      0.30s WALL (       1 calls)

     Called by electrons:
     c_bands      :      2.19s CPU      1.26s WALL (      12 calls)
     sum_band     :      0.20s CPU      0.15s WALL (      12 calls)
     v_of_rho     :      0.02s CPU      0.03s WALL (      13 calls)
     newd         :      0.02s CPU      0.02s WALL (      13 calls)
     mix_rho      :      0.01s CPU      0.01s WALL (      12 calls)

     Called by c_bands:
     init_us_2    :      0.04s CPU      0.03s WALL (     513 calls)
     cegterg      :      2.05s CPU      1.17s WALL (     228 calls)

     Called by *egterg:
     cdiaghg      :      0.52s CPU      0.27s WALL (    1405 calls)
     h_psi        :      1.33s CPU      0.78s WALL (    1424 calls)
     s_psi        :      0.04s CPU      0.02s WALL (    1424 calls)
     g_psi        :      0.02s CPU      0.01s WALL (    1177 calls)

     Called by h_psi:
     h_psi:calbec :      0.11s CPU      0.06s WALL (    1424 calls)
     vloc_psi     :      1.15s CPU      0.67s WALL (    1424 calls)
     add_vuspsi   :      0.03s CPU      0.02s WALL (    1424 calls)

     General routines
     calbec       :      0.14s CPU      0.10s WALL (    1975 calls)
     fft          :      0.13s CPU      0.28s WALL (     168 calls)
     ffts         :      0.00s CPU      0.00s WALL (      12 calls)
     fftw         :      1.11s CPU      0.65s WALL (   20238 calls)

     Parallel routines

     PWSCF        :      2.90s CPU      2.17s WALL


   This run was terminated on:  14:50:34  16Apr2025            

=------------------------------------------------------------------------------=
   JOB DONE.
=------------------------------------------------------------------------------=
